 Entering Gaussian System, Link 0=g03
 Input=potscan_5.gjf
 Output=potscan_5.log
 Initial command:
 /local/gaussian/g03/bin-macosx/l1.exe /scratch/cjwu/Gau-52346.inp -scrdir=/scratch/cjwu/
 Entering Link 1 = /local/gaussian/g03/bin-macosx/l1.exe PID=     52347.
  
 Copyright (c) 1988,1990,1992,1993,1995,1998,2003,2004,2007, Gaussian, Inc.
                  All Rights Reserved.
  
 This is the Gaussian(R) 03 program.  It is based on the
 the Gaussian(R) 98 system (copyright 1998, Gaussian, Inc.),
 the Gaussian(R) 94 system (copyright 1995, Gaussian, Inc.),
 the Gaussian 92(TM) system (copyright 1992, Gaussian, Inc.),
 the Gaussian 90(TM) system (copyright 1990, Gaussian, Inc.),
 the Gaussian 88(TM) system (copyright 1988, Gaussian, Inc.),
 the Gaussian 86(TM) system (copyright 1986, Carnegie Mellon
 University), and the Gaussian 82(TM) system (copyright 1983,
 Carnegie Mellon University). Gaussian is a federally registered
 trademark of Gaussian, Inc.
  
 This software contains proprietary and confidential information,
 including trade secrets, belonging to Gaussian, Inc.
  
 This software is provided under written license and may be
 used, copied, transmitted, or stored only in accord with that
 written license.
  
 The following legend is applicable only to US Government
 contracts under FAR:
  
                    RESTRICTED RIGHTS LEGEND
  
 Use, reproduction and disclosure by the US Government is
 subject to restrictions as set forth in subparagraphs (a)
 and (c) of the Commercial Computer Software - Restricted
 Rights clause in FAR 52.227-19.
  
 Gaussian, Inc.
 340 Quinnipiac St., Bldg. 40, Wallingford CT 06492
  
  
 ---------------------------------------------------------------
 Warning -- This program may not be used in any manner that
 competes with the business of Gaussian, Inc. or will provide
 assistance to any competitor of Gaussian, Inc.  The licensee
 of this program is prohibited from giving any competitor of
 Gaussian, Inc. access to this program.  By using this program,
 the user acknowledges that Gaussian, Inc. is engaged in the
 business of creating and licensing software in the field of
 computational chemistry and represents and warrants to the
 licensee that it is not a competitor of Gaussian, Inc. and that
 it will not use this program in any manner prohibited above.
 ---------------------------------------------------------------
  

 Cite this work as:
 Gaussian 03, Revision E.01,
 M. J. Frisch, G. W. Trucks, H. B. Schlegel, G. E. Scuseria, 
 M. A. Robb, J. R. Cheeseman, J. A. Montgomery, Jr., T. Vreven, 
 K. N. Kudin, J. C. Burant, J. M. Millam, S. S. Iyengar, J. Tomasi, 
 V. Barone, B. Mennucci, M. Cossi, G. Scalmani, N. Rega, 
 G. A. Petersson, H. Nakatsuji, M. Hada, M. Ehara, K. Toyota, 
 R. Fukuda, J. Hasegawa, M. Ishida, T. Nakajima, Y. Honda, O. Kitao, 
 H. Nakai, M. Klene, X. Li, J. E. Knox, H. P. Hratchian, J. B. Cross, 
 V. Bakken, C. Adamo, J. Jaramillo, R. Gomperts, R. E. Stratmann, 
 O. Yazyev, A. J. Austin, R. Cammi, C. Pomelli, J. W. Ochterski, 
 P. Y. Ayala, K. Morokuma, G. A. Voth, P. Salvador, J. J. Dannenberg, 
 V. G. Zakrzewski, S. Dapprich, A. D. Daniels, M. C. Strain, 
 O. Farkas, D. K. Malick, A. D. Rabuck, K. Raghavachari, 
 J. B. Foresman, J. V. Ortiz, Q. Cui, A. G. Baboul, S. Clifford, 
 J. Cioslowski, B. B. Stefanov, G. Liu, A. Liashenko, P. Piskorz, 
 I. Komaromi, R. L. Martin, D. J. Fox, T. Keith, M. A. Al-Laham, 
 C. Y. Peng, A. Nanayakkara, M. Challacombe, P. M. W. Gill, 
 B. Johnson, W. Chen, M. W. Wong, C. Gonzalez, and J. A. Pople, 
 Gaussian, Inc., Wallingford CT, 2004.
 
 ******************************************
 Gaussian 03:  EM64M-G03RevE.01 11-Sep-2007
                26-Feb-2009 
 ******************************************
 %chk=potscan_5.chk
 %mem=50mw
 ------------------------------------------------
 # MP2/cc-pvdz opt=modredundant maxdisk=30GB test
 ------------------------------------------------
 1/18=120,38=1/1,3;
 2/9=110,17=6,18=5,40=1/2;
 3/5=16,11=9,16=1,25=1,30=1/1,2,3;
 4//1;
 5/5=2,38=5/2;
 8/6=4,10=1/1;
 9/15=2,16=-3/6;
 10/5=1/2;
 6/7=2,8=2,9=2,10=2/1;
 7/12=2/1,2,3,16;
 1/18=20/3(3);
 2/9=110/2;
 6/7=2,8=2,9=2,10=2/1;
 99//99;
 2/9=110/2;
 3/5=16,11=9,16=1,25=1,30=1/1,2,3;
 4/5=5,16=3/1;
 5/5=2,38=5/2;
 8/6=4,10=1/1;
 9/15=2,16=-3/6;
 10/5=1/2;
 7/12=2/1,2,3,16;
 1/18=20/3(-8);
 2/9=110/2;
 6/7=2,8=2,9=2,10=2/1;
 99//99;
 ---------------------------------------------
 Generated with COMPARE program by Chuanjie Wu
 ---------------------------------------------
 Symbolic Z-matrix:
 Charge =  0 Multiplicity = 1
 C                    -1.74598   1.10669   1.22578 
 H                    -1.67894   0.62735   2.22767 
 H                    -0.83571   1.73237   1.08959 
 H                    -2.62334   1.79093   1.24007 
 C                    -1.87464   0.06752   0.10953 
 H                    -2.78462  -0.55686   0.25423 
 H                    -1.96345   0.57585  -0.87641 
 O                    -0.72062  -0.75435   0.10153 
 H                    -0.9319   -1.56529   0.54472 
 
 The following ModRedundant input section has been read:
 D    1    5    8    9 F                                                       

 GradGradGradGradGradGradGradGradGradGradGradGradGradGradGradGradGradGrad
 Berny optimization.
 Initialization pass.
                           ----------------------------
                           !    Initial Parameters    !
                           ! (Angstroms and Degrees)  !
 --------------------------                            --------------------------
 ! Name  Definition              Value          Derivative Info.                !
 --------------------------------------------------------------------------------
 ! R1    R(1,2)                  1.1127         estimate D2E/DX2                !
 ! R2    R(1,3)                  1.1129         estimate D2E/DX2                !
 ! R3    R(1,4)                  1.1127         estimate D2E/DX2                !
 ! R4    R(1,5)                  1.5305         estimate D2E/DX2                !
 ! R5    R(5,6)                  1.113          estimate D2E/DX2                !
 ! R6    R(5,7)                  1.1128         estimate D2E/DX2                !
 ! R7    R(5,8)                  1.4168         estimate D2E/DX2                !
 ! R8    R(8,9)                  0.948          estimate D2E/DX2                !
 ! A1    A(2,1,3)              107.6438         estimate D2E/DX2                !
 ! A2    A(2,1,4)              107.5093         estimate D2E/DX2                !
 ! A3    A(2,1,5)              111.6708         estimate D2E/DX2                !
 ! A4    A(3,1,4)              107.5044         estimate D2E/DX2                !
 ! A5    A(3,1,5)              111.1749         estimate D2E/DX2                !
 ! A6    A(4,1,5)              111.1369         estimate D2E/DX2                !
 ! A7    A(1,5,6)              110.7807         estimate D2E/DX2                !
 ! A8    A(1,5,7)              110.0438         estimate D2E/DX2                !
 ! A9    A(1,5,8)              109.2392         estimate D2E/DX2                !
 ! A10   A(6,5,7)              107.8291         estimate D2E/DX2                !
 ! A11   A(6,5,8)              109.9532         estimate D2E/DX2                !
 ! A12   A(7,5,8)              108.965          estimate D2E/DX2                !
 ! A13   A(5,8,9)              108.1832         estimate D2E/DX2                !
 ! D1    D(2,1,5,6)             59.5382         estimate D2E/DX2                !
 ! D2    D(2,1,5,7)            178.6847         estimate D2E/DX2                !
 ! D3    D(2,1,5,8)            -61.7289         estimate D2E/DX2                !
 ! D4    D(3,1,5,6)            179.7826         estimate D2E/DX2                !
 ! D5    D(3,1,5,7)            -61.0709         estimate D2E/DX2                !
 ! D6    D(3,1,5,8)             58.5156         estimate D2E/DX2                !
 ! D7    D(4,1,5,6)            -60.5091         estimate D2E/DX2                !
 ! D8    D(4,1,5,7)             58.6374         estimate D2E/DX2                !
 ! D9    D(4,1,5,8)            178.2238         estimate D2E/DX2                !
 ! D10   D(1,5,8,9)            100.0            Frozen                          !
 ! D11   D(6,5,8,9)            -21.768          estimate D2E/DX2                !
 ! D12   D(7,5,8,9)           -139.7495         estimate D2E/DX2                !
 --------------------------------------------------------------------------------
 Trust Radius=3.00D-01 FncErr=1.00D-07 GrdErr=1.00D-07
 Number of steps in this run=  43 maximum allowed number of steps= 100.
 GradGradGradGradGradGradGradGradGradGradGradGradGradGradGradGradGradGrad

                          Input orientation:                          
 ---------------------------------------------------------------------
 Center     Atomic     Atomic              Coordinates (Angstroms)
 Number     Number      Type              X           Y           Z
 ---------------------------------------------------------------------
    1          6             0       -1.745979    1.106694    1.225781
    2          1             0       -1.678935    0.627345    2.227668
    3          1             0       -0.835711    1.732365    1.089591
    4          1             0       -2.623340    1.790926    1.240069
    5          6             0       -1.874638    0.067519    0.109528
    6          1             0       -2.784616   -0.556858    0.254228
    7          1             0       -1.963453    0.575845   -0.876409
    8          8             0       -0.720620   -0.754349    0.101531
    9          1             0       -0.931900   -1.565292    0.544715
 ---------------------------------------------------------------------
                    Distance matrix (angstroms):
                    1          2          3          4          5
     1  C    0.000000
     2  H    1.112676   0.000000
     3  H    1.112924   1.796473   0.000000
     4  H    1.112717   1.794763   1.794907   0.000000
     5  C    1.530509   2.199596   2.193537   2.192900   0.000000
     6  H    2.188627   2.553298   3.120353   2.551467   1.113034
     7  H    2.179059   3.117515   2.544503   2.528112   1.112814
     8  O    2.403909   2.710702   2.678293   3.375654   1.416788
     9  H    2.875080   2.863224   3.343753   3.822131   1.934997
                    6          7          8          9
     6  H    0.000000
     7  H    1.798795   0.000000
     8  O    2.079038   2.066499   0.000000
     9  H    2.129291   2.769145   0.947987   0.000000
 Stoichiometry    C2H6O
 Framework group  C1[X(C2H6O)]
 Deg. of freedom    21
 Full point group                 C1
 Largest Abelian subgroup         C1      NOp   1
 Largest concise Abelian subgroup C1      NOp   1
                         Standard orientation:                         
 ---------------------------------------------------------------------
 Center     Atomic     Atomic              Coordinates (Angstroms)
 Number     Number      Type              X           Y           Z
 ---------------------------------------------------------------------
    1          6             0        1.209654   -0.239372    0.008414
    2          1             0        1.256477   -0.947298    0.865558
    3          1             0        1.313383   -0.834240   -0.926450
    4          1             0        2.095278    0.430596    0.078796
    5          6             0       -0.092424    0.565021    0.010236
    6          1             0       -0.191320    1.154176    0.949364
    7          1             0       -0.100445    1.279662   -0.842747
    8          8             0       -1.189303   -0.321938   -0.121858
    9          1             0       -1.562331   -0.461286    0.738440
 ---------------------------------------------------------------------
 Rotational constants (GHZ):     33.3823270      9.2876839      8.2058515
 Standard basis: CC-pVDZ (5D, 7F)
 There are    72 symmetry adapted basis functions of A   symmetry.
 Integral buffers will be    131072 words long.
 Raffenetti 1 integral format.
 Two-electron integral symmetry is turned on.
    72 basis functions,   141 primitive gaussians,    75 cartesian basis functions
    13 alpha electrons       13 beta electrons
       nuclear repulsion energy        81.4169845335 Hartrees.
 NAtoms=    9 NActive=    9 NUniq=    9 SFac= 7.50D-01 NAtFMM=   80 NAOKFM=F Big=F
 One-electron integrals computed using PRISM.
 NBasis=    72 RedAO= T  NBF=    72
 NBsUse=    72 1.00D-06 NBFU=    72
 Harris functional with IExCor=  205 diagonalized for initial guess.
 ExpMin= 1.22D-01 ExpMax= 1.17D+04 ExpMxC= 4.01D+02 IAcc=1 IRadAn=         1 AccDes= 1.00D-06
 HarFok:  IExCor= 205 AccDes= 1.00D-06 IRadAn=         1 IDoV=1
 ScaDFX=  1.000000  1.000000  1.000000  1.000000
 Initial guess orbital symmetries:
       Occupied  (A) (A) (A) (A) (A) (A) (A) (A) (A) (A) (A) (A)
                 (A)
       Virtual   (A) (A) (A) (A) (A) (A) (A) (A) (A) (A) (A) (A)
                 (A) (A) (A) (A) (A) (A) (A) (A) (A) (A) (A) (A)
                 (A) (A) (A) (A) (A) (A) (A) (A) (A) (A) (A) (A)
                 (A) (A) (A) (A) (A) (A) (A) (A) (A) (A) (A) (A)
                 (A) (A) (A) (A) (A) (A) (A) (A) (A) (A) (A)
 The electronic state of the initial guess is 1-A.
 Requested convergence on RMS density matrix=1.00D-08 within 128 cycles.
 Requested convergence on MAX density matrix=1.00D-06.
 Requested convergence on             energy=1.00D-06.
 No special actions if energy rises.
 Keep R1 integrals in memory in canonical form, NReq=     5139848.
 SCF Done:  E(RHF) =  -154.089235575     A.U. after   12 cycles
             Convg  =    0.3159D-08             -V/T =  2.0016
             S**2   =   0.0000
 ExpMin= 1.22D-01 ExpMax= 1.17D+04 ExpMxC= 4.01D+02 IAcc=1 IRadAn=         1 AccDes= 1.00D-06
 HarFok:  IExCor= 205 AccDes= 1.00D-06 IRadAn=         1 IDoV=1
 ScaDFX=  1.000000  1.000000  1.000000  1.000000
 Range of M.O.s used for correlation:     4    72
 NBasis=    72 NAE=    13 NBE=    13 NFC=     3 NFV=     0
 NROrb=     69 NOA=    10 NOB=    10 NVA=    59 NVB=    59
 Fully direct method using O(ONN) memory.
 JobTyp=1 Pass  1:  I=   4 to  13 NPSUse=  1 ParTrn=F ParDer=F DoDerP=T.
 Spin components of T(2) and E(2):
     alpha-alpha T2 =       0.1735031406D-01 E2=     -0.5656395217D-01
     alpha-beta  T2 =       0.1117350617D+00 E2=     -0.3683266129D+00
     beta-beta   T2 =       0.1735031406D-01 E2=     -0.5656395217D-01
 ANorm=    0.1070717372D+01
 E2 =    -0.4814545172D+00 EUMP2 =    -0.15457069009186D+03
 DoAtom=TTTTTTTTT
          Differentiating once with respect to electric field.
                with respect to dipole field.
          Differentiating once with respect to nuclear coordinates.
          Store integrals in memory, NReq=     4883431.
          There are   1 degrees of freedom in the 1st order CPHF.
     1 vectors were produced by pass  0.
 AX will form   1 AO Fock derivatives at one time.
     1 vectors were produced by pass  1.
     1 vectors were produced by pass  2.
     1 vectors were produced by pass  3.
     1 vectors were produced by pass  4.
     1 vectors were produced by pass  5.
     1 vectors were produced by pass  6.
     1 vectors were produced by pass  7.
     1 vectors were produced by pass  8.
     1 vectors were produced by pass  9.
     1 vectors were produced by pass 10.
     1 vectors were produced by pass 11.
 Inv2:  IOpt= 1 Iter= 1 AM= 3.01D-16 Conv= 1.00D-12.
 Inverted reduced A of dimension   12 with in-core refinement.
 End of Minotr Frequency-dependent properties file   721 does not exist.

 **********************************************************************

            Population analysis using the SCF density.

 **********************************************************************

 Orbital symmetries:
       Occupied  (A) (A) (A) (A) (A) (A) (A) (A) (A) (A) (A) (A)
                 (A)
       Virtual   (A) (A) (A) (A) (A) (A) (A) (A) (A) (A) (A) (A)
                 (A) (A) (A) (A) (A) (A) (A) (A) (A) (A) (A) (A)
                 (A) (A) (A) (A) (A) (A) (A) (A) (A) (A) (A) (A)
                 (A) (A) (A) (A) (A) (A) (A) (A) (A) (A) (A) (A)
                 (A) (A) (A) (A) (A) (A) (A) (A) (A) (A) (A)
 The electronic state is 1-A.
 Alpha  occ. eigenvalues --  -20.54669 -11.28286 -11.22569  -1.35671  -1.00139
 Alpha  occ. eigenvalues --   -0.83412  -0.69349  -0.62263  -0.57431  -0.54444
 Alpha  occ. eigenvalues --   -0.51485  -0.47197  -0.43386
 Alpha virt. eigenvalues --    0.17724   0.21505   0.23395   0.25720   0.26741
 Alpha virt. eigenvalues --    0.28587   0.38499   0.39697   0.59484   0.61935
 Alpha virt. eigenvalues --    0.67288   0.73638   0.75441   0.80949   0.84379
 Alpha virt. eigenvalues --    0.87487   0.88217   0.88672   0.90243   0.92346
 Alpha virt. eigenvalues --    1.13104   1.13213   1.17373   1.27272   1.33773
 Alpha virt. eigenvalues --    1.35296   1.45553   1.50916   1.58799   1.65735
 Alpha virt. eigenvalues --    1.68250   1.73368   1.83216   1.85970   1.88375
 Alpha virt. eigenvalues --    1.90847   1.92414   1.94753   1.96048   2.03366
 Alpha virt. eigenvalues --    2.04668   2.16659   2.25829   2.26607   2.35539
 Alpha virt. eigenvalues --    2.43761   2.48809   2.50954   2.55375   2.70673
 Alpha virt. eigenvalues --    2.72543   2.79025   2.84425   2.87564   3.32767
 Alpha virt. eigenvalues --    3.40747   3.46378   3.63507   4.11424
          Condensed to atoms (all electrons):
              1          2          3          4          5          6
     1  C    4.607583   0.397514   0.403740   0.386928   0.421044  -0.037642
     2  H    0.397514   0.645638  -0.027362  -0.022932  -0.026844  -0.007483
     3  H    0.403740  -0.027362   0.622900  -0.022970  -0.025232   0.007421
     4  H    0.386928  -0.022932  -0.022970   0.659295  -0.026001  -0.000970
     5  C    0.421044  -0.026844  -0.025232  -0.026001   4.428231   0.410138
     6  H   -0.037642  -0.007483   0.007421  -0.000970   0.410138   0.689030
     7  H   -0.043195   0.007134  -0.007208  -0.000428   0.408242  -0.036601
     8  O   -0.053333   0.002819   0.001575   0.003739   0.302247  -0.027913
     9  H    0.001803   0.001968  -0.000717  -0.000287  -0.040132  -0.014370
              7          8          9
     1  C   -0.043195  -0.053333   0.001803
     2  H    0.007134   0.002819   0.001968
     3  H   -0.007208   0.001575  -0.000717
     4  H   -0.000428   0.003739  -0.000287
     5  C    0.408242   0.302247  -0.040132
     6  H   -0.036601  -0.027913  -0.014370
     7  H    0.651696  -0.024853   0.006896
     8  O   -0.024853   7.805720   0.366371
     9  H    0.006896   0.366371   0.523695
 Mulliken atomic charges:
              1
     1  C   -0.084441
     2  H    0.029548
     3  H    0.047852
     4  H    0.023627
     5  C    0.148307
     6  H    0.018390
     7  H    0.038318
     8  O   -0.376373
     9  H    0.154772
 Sum of Mulliken charges=   0.00000
 Atomic charges with hydrogens summed into heavy atoms:
              1
     1  C    0.016587
     2  H    0.000000
     3  H    0.000000
     4  H    0.000000
     5  C    0.205014
     6  H    0.000000
     7  H    0.000000
     8  O   -0.221601
     9  H    0.000000
 Sum of Mulliken charges=   0.00000
 Electronic spatial extent (au):  <R**2>=   194.9205
 Charge=     0.0000 electrons
 Dipole moment (field-independent basis, Debye):
    X=     0.4954    Y=     0.6667    Z=     1.5087  Tot=     1.7222
 Quadrupole moment (field-independent basis, Debye-Ang):
   XX=   -20.5615   YY=   -19.9798   ZZ=   -18.6125
   XY=     0.0518   XZ=    -2.8680   YZ=    -0.9201
 Traceless Quadrupole moment (field-independent basis, Debye-Ang):
   XX=    -0.8436   YY=    -0.2618   ZZ=     1.1054
   XY=     0.0518   XZ=    -2.8680   YZ=    -0.9201
 Octapole moment (field-independent basis, Debye-Ang**2):
  XXX=    -7.8247  YYY=    -0.8829  ZZZ=     0.9118  XYY=    -1.9508
  XXY=    -0.7622  XXZ=     4.4581  XZZ=    -3.7643  YZZ=    -0.9062
  YYZ=     0.3377  XYZ=     1.4084
 Hexadecapole moment (field-independent basis, Debye-Ang**3):
 XXXX=  -153.8861 YYYY=   -57.4246 ZZZZ=   -33.5600 XXXY=     6.3066
 XXXZ=    -8.0000 YYYX=     2.4347 YYYZ=    -1.0153 ZZZX=    -2.8943
 ZZZY=    -0.7430 XXYY=   -34.8131 XXZZ=   -29.7289 YYZZ=   -13.6199
 XXYZ=    -1.8719 YYXZ=    -0.9371 ZZXY=     0.6191
 N-N= 8.141698453349D+01 E-N=-5.246466694136D+02  KE= 1.538402662865D+02
 ***** Axes restored to original set *****
 -------------------------------------------------------------------
 Center     Atomic                   Forces (Hartrees/Bohr)
 Number     Number              X              Y              Z
 -------------------------------------------------------------------
    1          6          -0.005047323    0.008090542    0.003828348
    2          1          -0.000137978    0.000642755   -0.006853993
    3          1          -0.004997338   -0.006061652   -0.000896683
    4          1           0.003721008   -0.003206634   -0.000252467
    5          6          -0.002315241    0.001034572    0.007659421
    6          1           0.000800938    0.005766091   -0.001435374
    7          1           0.001567507   -0.003781865    0.004766080
    8          8           0.011874808    0.010489759   -0.016031576
    9          1          -0.005466381   -0.012973568    0.009216244
 -------------------------------------------------------------------
 Cartesian Forces:  Max     0.016031576 RMS     0.006586813

 GradGradGradGradGradGradGradGradGradGradGradGradGradGradGradGradGradGrad
 Berny optimization.
 Internal  Forces:  Max     0.016624963 RMS     0.004630700
 Search for a local minimum.
 Step number   1 out of a maximum of  43
 All quantities printed in internal units (Hartrees-Bohrs-Radians)
 Second derivative matrix not updated -- first step.
     Eigenvalues ---    0.00362   0.04302   0.05429   0.05492   0.05789
     Eigenvalues ---    0.11363   0.11918   0.16000   0.16000   0.16000
     Eigenvalues ---    0.16000   0.21990   0.29376   0.32281   0.32292
     Eigenvalues ---    0.32304   0.32314   0.32318   0.42948   0.58140
     Eigenvalues --- 1000.000001000.000001000.000001000.000001000.00000
     Eigenvalues --- 1000.000001000.000001000.000001000.000001000.00000
     Eigenvalues --- 1000.000001000.000001000.00000
 RFO step:  Lambda=-2.64810648D-03.
 Linear search not attempted -- first point.
 Iteration  1 RMS(Cart)=  0.02524892 RMS(Int)=  0.00060527
 Iteration  2 RMS(Cart)=  0.00060440 RMS(Int)=  0.00036467
 Iteration  3 RMS(Cart)=  0.00000012 RMS(Int)=  0.00036467
 Iteration  1 RMS(Cart)=  0.00013444 RMS(Int)=  0.00011448
 Iteration  2 RMS(Cart)=  0.00006577 RMS(Int)=  0.00012798
 Iteration  3 RMS(Cart)=  0.00003218 RMS(Int)=  0.00014271
 Iteration  4 RMS(Cart)=  0.00001574 RMS(Int)=  0.00015129
 Iteration  5 RMS(Cart)=  0.00000770 RMS(Int)=  0.00015575
 Iteration  6 RMS(Cart)=  0.00000377 RMS(Int)=  0.00015800
 Iteration  7 RMS(Cart)=  0.00000184 RMS(Int)=  0.00015910
 Iteration  8 RMS(Cart)=  0.00000090 RMS(Int)=  0.00015965
 Variable       Old X    -DE/DX   Delta X   Delta X   Delta X     New X
                                 (Linear)    (Quad)   (Total)
    R1        2.10265  -0.00646   0.00000  -0.01982  -0.01982   2.08284
    R2        2.10312  -0.00739   0.00000  -0.02268  -0.02268   2.08044
    R3        2.10273  -0.00491   0.00000  -0.01507  -0.01507   2.08766
    R4        2.89224  -0.00395   0.00000  -0.01333  -0.01333   2.87891
    R5        2.10333  -0.00408   0.00000  -0.01252  -0.01252   2.09081
    R6        2.10291  -0.00608   0.00000  -0.01865  -0.01865   2.08426
    R7        2.67734   0.00670   0.00000   0.01550   0.01550   2.69284
    R8        1.79144   0.01662   0.00000   0.02847   0.02847   1.81990
    A1        1.87874   0.00243   0.00000   0.00642   0.00593   1.88467
    A2        1.87639   0.00142   0.00000   0.01282   0.01290   1.88929
    A3        1.94902  -0.00290   0.00000  -0.02021  -0.02041   1.92861
    A4        1.87631   0.00177   0.00000   0.01543   0.01552   1.89183
    A5        1.94037  -0.00344   0.00000  -0.02338  -0.02357   1.91679
    A6        1.93970   0.00107   0.00000   0.01117   0.01126   1.95097
    A7        1.93349  -0.00428   0.00000  -0.01428  -0.01584   1.91765
    A8        1.92063  -0.00051   0.00000  -0.01260  -0.01207   1.90856
    A9        1.90658   0.00844   0.00000   0.04407   0.04367   1.95025
   A10        1.88197   0.00020   0.00000  -0.01864  -0.01875   1.86322
   A11        1.91905   0.00098   0.00000   0.03728   0.03686   1.95591
   A12        1.90180  -0.00502   0.00000  -0.03722  -0.03680   1.86500
   A13        1.88815  -0.00409   0.00000  -0.02512  -0.02512   1.86304
    D1        1.03914   0.00280   0.00000   0.03434   0.03398   1.07312
    D2        3.11864   0.00003   0.00000  -0.00581  -0.00589   3.11275
    D3       -1.07737  -0.00123   0.00000  -0.03189  -0.03192  -1.10929
    D4        3.13780   0.00156   0.00000   0.01273   0.01269  -3.13270
    D5       -1.06589  -0.00121   0.00000  -0.02742  -0.02719  -1.09307
    D6        1.02129  -0.00246   0.00000  -0.05350  -0.05321   0.96808
    D7       -1.05608   0.00222   0.00000   0.02408   0.02388  -1.03221
    D8        1.02342  -0.00055   0.00000  -0.01607  -0.01600   1.00742
    D9        3.11059  -0.00181   0.00000  -0.04215  -0.04202   3.06857
   D10        1.74533  -0.00093   0.00000   0.00000   0.00000   1.74533
   D11       -0.37992  -0.00168   0.00000  -0.03433  -0.03576  -0.41568
   D12       -2.43909   0.00049   0.00000  -0.01134  -0.01175  -2.45084
         Item               Value     Threshold  Converged?
 Maximum Force            0.016625     0.000450     NO 
 RMS     Force            0.004697     0.000300     NO 
 Maximum Displacement     0.057189     0.001800     NO 
 RMS     Displacement     0.025027     0.001200     NO 
 Predicted change in Energy=-1.355615D-03
 GradGradGradGradGradGradGradGradGradGradGradGradGradGradGradGradGradGrad

                          Input orientation:                          
 ---------------------------------------------------------------------
 Center     Atomic     Atomic              Coordinates (Angstroms)
 Number     Number      Type              X           Y           Z
 ---------------------------------------------------------------------
    1          6             0       -1.757583    1.115270    1.228881
    2          1             0       -1.697482    0.635067    2.219141
    3          1             0       -0.843843    1.712155    1.084549
    4          1             0       -2.624765    1.799707    1.228373
    5          6             0       -1.866571    0.063884    0.131782
    6          1             0       -2.789348   -0.530502    0.270793
    7          1             0       -1.955370    0.564707   -0.846877
    8          8             0       -0.704258   -0.758289    0.071268
    9          1             0       -0.919972   -1.577804    0.528792
 ---------------------------------------------------------------------
                    Distance matrix (angstroms):
                    1          2          3          4          5
     1  C    0.000000
     2  H    1.102190   0.000000
     3  H    1.100920   1.782166   0.000000
     4  H    1.104744   1.788257   1.788863   0.000000
     5  C    1.523455   2.170692   2.161142   2.188710   0.000000
     6  H    2.165880   2.519282   3.078425   2.524663   1.106407
     7  H    2.156620   3.077649   2.506499   2.505989   1.102943
     8  O    2.441267   2.746141   2.673820   3.401556   1.424992
     9  H    2.905918   2.891123   3.337438   3.847507   1.936183
                    6          7          8          9
     6  H    0.000000
     7  H    1.773186   0.000000
     8  O    2.106964   2.039262   0.000000
     9  H    2.158233   2.748611   0.963051   0.000000
 Stoichiometry    C2H6O
 Framework group  C1[X(C2H6O)]
 Deg. of freedom    21
 Full point group                 C1
 Largest Abelian subgroup         C1      NOp   1
 Largest concise Abelian subgroup C1      NOp   1
                         Standard orientation:                         
 ---------------------------------------------------------------------
 Center     Atomic     Atomic              Coordinates (Angstroms)
 Number     Number      Type              X           Y           Z
 ---------------------------------------------------------------------
    1          6             0        1.223762   -0.239980    0.008371
    2          1             0        1.272422   -0.908442    0.883364
    3          1             0        1.284253   -0.861737   -0.898151
    4          1             0        2.104191    0.426872    0.033095
    5          6             0       -0.081133    0.546254    0.009492
    6          1             0       -0.138605    1.178358    0.915736
    7          1             0       -0.096932    1.229460   -0.856223
    8          8             0       -1.213191   -0.309649   -0.118865
    9          1             0       -1.575569   -0.424970    0.765922
 ---------------------------------------------------------------------
 Rotational constants (GHZ):     34.6036140      9.0725333      8.0976760
 Standard basis: CC-pVDZ (5D, 7F)
 There are    72 symmetry adapted basis functions of A   symmetry.
 Integral buffers will be    131072 words long.
 Raffenetti 1 integral format.
 Two-electron integral symmetry is turned on.
    72 basis functions,   141 primitive gaussians,    75 cartesian basis functions
    13 alpha electrons       13 beta electrons
       nuclear repulsion energy        81.3149020116 Hartrees.
 NAtoms=    9 NActive=    9 NUniq=    9 SFac= 7.50D-01 NAtFMM=   80 NAOKFM=F Big=F
 One-electron integrals computed using PRISM.
 NBasis=    72 RedAO= T  NBF=    72
 NBsUse=    72 1.00D-06 NBFU=    72
 Initial guess read from the read-write file:
 Initial guess orbital symmetries:
       Occupied  (A) (A) (A) (A) (A) (A) (A) (A) (A) (A) (A) (A)
                 (A)
       Virtual   (A) (A) (A) (A) (A) (A) (A) (A) (A) (A) (A) (A)
                 (A) (A) (A) (A) (A) (A) (A) (A) (A) (A) (A) (A)
                 (A) (A) (A) (A) (A) (A) (A) (A) (A) (A) (A) (A)
                 (A) (A) (A) (A) (A) (A) (A) (A) (A) (A) (A) (A)
                 (A) (A) (A) (A) (A) (A) (A) (A) (A) (A) (A)
 Harris functional with IExCor=  205 diagonalized for initial guess.
 ExpMin= 1.22D-01 ExpMax= 1.17D+04 ExpMxC= 4.01D+02 IAcc=1 IRadAn=         1 AccDes= 1.00D-06
 HarFok:  IExCor= 205 AccDes= 1.00D-06 IRadAn=         1 IDoV=1
 ScaDFX=  1.000000  1.000000  1.000000  1.000000
 Requested convergence on RMS density matrix=1.00D-08 within 128 cycles.
 Requested convergence on MAX density matrix=1.00D-06.
 Requested convergence on             energy=1.00D-06.
 No special actions if energy rises.
 Keep R1 integrals in memory in canonical form, NReq=     5139848.
 SCF Done:  E(RHF) =  -154.089918705     A.U. after   10 cycles
             Convg  =    0.7796D-08             -V/T =  2.0014
             S**2   =   0.0000
 ExpMin= 1.22D-01 ExpMax= 1.17D+04 ExpMxC= 4.01D+02 IAcc=1 IRadAn=         1 AccDes= 1.00D-06
 HarFok:  IExCor= 205 AccDes= 1.00D-06 IRadAn=         1 IDoV=1
 ScaDFX=  1.000000  1.000000  1.000000  1.000000
 Range of M.O.s used for correlation:     4    72
 NBasis=    72 NAE=    13 NBE=    13 NFC=     3 NFV=     0
 NROrb=     69 NOA=    10 NOB=    10 NVA=    59 NVB=    59
 Fully direct method using O(ONN) memory.
 JobTyp=1 Pass  1:  I=   4 to  13 NPSUse=  1 ParTrn=F ParDer=F DoDerP=T.
 Spin components of T(2) and E(2):
     alpha-alpha T2 =       0.1740156848D-01 E2=     -0.5669314273D-01
     alpha-beta  T2 =       0.1116871392D+00 E2=     -0.3685662904D+00
     beta-beta   T2 =       0.1740156848D-01 E2=     -0.5669314273D-01
 ANorm=    0.1070742862D+01
 E2 =    -0.4819525758D+00 EUMP2 =    -0.15457187128114D+03
 DoAtom=TTTTTTTTT
          Differentiating once with respect to electric field.
                with respect to dipole field.
          Differentiating once with respect to nuclear coordinates.
          Store integrals in memory, NReq=     4883431.
          There are   1 degrees of freedom in the 1st order CPHF.
     1 vectors were produced by pass  0.
 AX will form   1 AO Fock derivatives at one time.
     1 vectors were produced by pass  1.
     1 vectors were produced by pass  2.
     1 vectors were produced by pass  3.
     1 vectors were produced by pass  4.
     1 vectors were produced by pass  5.
     1 vectors were produced by pass  6.
     1 vectors were produced by pass  7.
     1 vectors were produced by pass  8.
     1 vectors were produced by pass  9.
     1 vectors were produced by pass 10.
     1 vectors were produced by pass 11.
 Inv2:  IOpt= 1 Iter= 1 AM= 5.36D-16 Conv= 1.00D-12.
 Inverted reduced A of dimension   12 with in-core refinement.
 End of Minotr Frequency-dependent properties file   721 does not exist.
 ***** Axes restored to original set *****
 -------------------------------------------------------------------
 Center     Atomic                   Forces (Hartrees/Bohr)
 Number     Number              X              Y              Z
 -------------------------------------------------------------------
    1          6           0.000492351    0.000045849    0.001919028
    2          1           0.000120347   -0.000065428    0.000799982
    3          1           0.000634323    0.000194041    0.000058914
    4          1           0.000195677   -0.001318055   -0.000893510
    5          6          -0.001022044    0.002659752   -0.001484294
    6          1           0.000362661   -0.001283309   -0.000384076
    7          1          -0.000275257    0.000331045   -0.000966281
    8          8          -0.000835686   -0.000210297   -0.001442161
    9          1           0.000327628   -0.000353599    0.002392398
 -------------------------------------------------------------------
 Cartesian Forces:  Max     0.002659752 RMS     0.001049667

 GradGradGradGradGradGradGradGradGradGradGradGradGradGradGradGradGradGrad
 Berny optimization.
 Internal  Forces:  Max     0.001982664 RMS     0.000860288
 Search for a local minimum.
 Step number   2 out of a maximum of  43
 All quantities printed in internal units (Hartrees-Bohrs-Radians)
 Update second derivatives using D2CorX and points  1  2
 Trust test= 8.71D-01 RLast= 1.43D-01 DXMaxT set to 4.24D-01
     Eigenvalues ---    0.00363   0.04186   0.05470   0.05700   0.06025
     Eigenvalues ---    0.11504   0.12603   0.15469   0.16000   0.16000
     Eigenvalues ---    0.16570   0.23268   0.29511   0.31703   0.32283
     Eigenvalues ---    0.32298   0.32313   0.33431   0.42830   0.55662
     Eigenvalues --- 1000.000001000.000001000.000001000.000001000.00000
     Eigenvalues --- 1000.000001000.000001000.000001000.000001000.00000
     Eigenvalues --- 1000.000001000.000001000.00000
 RFO step:  Lambda=-6.73959683D-05.
 Quartic linear search produced a step of -0.09469.
 Iteration  1 RMS(Cart)=  0.00500770 RMS(Int)=  0.00003517
 Iteration  2 RMS(Cart)=  0.00002338 RMS(Int)=  0.00002748
 Iteration  3 RMS(Cart)=  0.00000000 RMS(Int)=  0.00002748
 Iteration  1 RMS(Cart)=  0.00000902 RMS(Int)=  0.00000769
 Iteration  2 RMS(Cart)=  0.00000442 RMS(Int)=  0.00000860
 Iteration  3 RMS(Cart)=  0.00000216 RMS(Int)=  0.00000959
 Iteration  4 RMS(Cart)=  0.00000106 RMS(Int)=  0.00001016
 Iteration  5 RMS(Cart)=  0.00000052 RMS(Int)=  0.00001047
 Variable       Old X    -DE/DX   Delta X   Delta X   Delta X     New X
                                 (Linear)    (Quad)   (Total)
    R1        2.08284   0.00075   0.00188  -0.00026   0.00162   2.08446
    R2        2.08044   0.00062   0.00215  -0.00096   0.00119   2.08162
    R3        2.08766  -0.00097   0.00143  -0.00452  -0.00309   2.08457
    R4        2.87891   0.00067   0.00126   0.00047   0.00174   2.88065
    R5        2.09081   0.00034   0.00119  -0.00055   0.00064   2.09144
    R6        2.08426   0.00103   0.00177   0.00066   0.00242   2.08668
    R7        2.69284  -0.00013  -0.00147   0.00158   0.00011   2.69296
    R8        1.81990   0.00136  -0.00270   0.00553   0.00283   1.82274
    A1        1.88467  -0.00028  -0.00056   0.00114   0.00061   1.88528
    A2        1.88929   0.00050  -0.00122   0.00313   0.00190   1.89120
    A3        1.92861   0.00074   0.00193   0.00213   0.00408   1.93270
    A4        1.89183   0.00078  -0.00147   0.00550   0.00402   1.89585
    A5        1.91679   0.00030   0.00223  -0.00048   0.00176   1.91855
    A6        1.95097  -0.00198  -0.00107  -0.01093  -0.01201   1.93896
    A7        1.91765   0.00084   0.00150   0.00669   0.00829   1.92594
    A8        1.90856   0.00120   0.00114   0.00268   0.00377   1.91233
    A9        1.95025  -0.00175  -0.00413  -0.00280  -0.00690   1.94335
   A10        1.86322  -0.00037   0.00178  -0.00098   0.00077   1.86399
   A11        1.95591  -0.00053  -0.00349  -0.00483  -0.00827   1.94764
   A12        1.86500   0.00072   0.00348  -0.00073   0.00273   1.86773
   A13        1.86304  -0.00004   0.00238  -0.00325  -0.00087   1.86217
    D1        1.07312  -0.00085  -0.00322  -0.00657  -0.00978   1.06335
    D2        3.11275  -0.00012   0.00056  -0.00234  -0.00177   3.11098
    D3       -1.10929   0.00047   0.00302  -0.00324  -0.00021  -1.10950
    D4       -3.13270  -0.00056  -0.00120  -0.00414  -0.00536  -3.13806
    D5       -1.09307   0.00018   0.00257   0.00008   0.00265  -1.09042
    D6        0.96808   0.00077   0.00504  -0.00082   0.00421   0.97228
    D7       -1.03221  -0.00067  -0.00226  -0.00466  -0.00692  -1.03913
    D8        1.00742   0.00007   0.00151  -0.00044   0.00109   1.00850
    D9        3.06857   0.00066   0.00398  -0.00134   0.00264   3.07121
   D10        1.74533  -0.00169   0.00000   0.00000   0.00000   1.74533
   D11       -0.41568  -0.00107   0.00339  -0.00305   0.00043  -0.41525
   D12       -2.45084  -0.00077   0.00111   0.00120   0.00234  -2.44850
         Item               Value     Threshold  Converged?
 Maximum Force            0.001983     0.000450     NO 
 RMS     Force            0.000768     0.000300     NO 
 Maximum Displacement     0.011163     0.001800     NO 
 RMS     Displacement     0.005016     0.001200     NO 
 Predicted change in Energy=-4.625337D-05
 GradGradGradGradGradGradGradGradGradGradGradGradGradGradGradGradGradGrad

                          Input orientation:                          
 ---------------------------------------------------------------------
 Center     Atomic     Atomic              Coordinates (Angstroms)
 Number     Number      Type              X           Y           Z
 ---------------------------------------------------------------------
    1          6             0       -1.754468    1.115148    1.230734
    2          1             0       -1.695046    0.635796    2.222400
    3          1             0       -0.840650    1.712960    1.085944
    4          1             0       -2.624088    1.793800    1.224451
    5          6             0       -1.868985    0.066453    0.130351
    6          1             0       -2.787158   -0.536163    0.267082
    7          1             0       -1.958838    0.567087   -0.849754
    8          8             0       -0.706032   -0.755199    0.073795
    9          1             0       -0.923928   -1.575688    0.531700
 ---------------------------------------------------------------------
                    Distance matrix (angstroms):
                    1          2          3          4          5
     1  C    0.000000
     2  H    1.103047   0.000000
     3  H    1.101547   1.783763   0.000000
     4  H    1.103108   1.788853   1.790634   0.000000
     5  C    1.524374   2.175103   2.163704   2.179670   0.000000
     6  H    2.172994   2.527739   3.085123   2.524258   1.106745
     7  H    2.161150   3.084224   2.512030   2.499942   1.104225
     8  O    2.436375   2.743997   2.671025   3.391216   1.425052
     9  H    2.901559   2.888555   3.336065   3.837173   1.936709
                    6          7          8          9
     6  H    0.000000
     7  H    1.774992   0.000000
     8  O    2.101529   2.042279   0.000000
     9  H    2.149944   2.751533   0.964550   0.000000
 Stoichiometry    C2H6O
 Framework group  C1[X(C2H6O)]
 Deg. of freedom    21
 Full point group                 C1
 Largest Abelian subgroup         C1      NOp   1
 Largest concise Abelian subgroup C1      NOp   1
                         Standard orientation:                         
 ---------------------------------------------------------------------
 Center     Atomic     Atomic              Coordinates (Angstroms)
 Number     Number      Type              X           Y           Z
 ---------------------------------------------------------------------
    1          6             0        1.222286   -0.240863    0.008450
    2          1             0        1.273284   -0.911698    0.882574
    3          1             0        1.285186   -0.860085   -0.900403
    4          1             0        2.094967    0.433293    0.036505
    5          6             0       -0.081462    0.549048    0.009671
    6          1             0       -0.150264    1.176765    0.918583
    7          1             0       -0.098463    1.236035   -0.854663
    8          8             0       -1.209680   -0.311854   -0.119721
    9          1             0       -1.572216   -0.428591    0.766449
 ---------------------------------------------------------------------
 Rotational constants (GHZ):     34.3763918      9.1066015      8.1145148
 Standard basis: CC-pVDZ (5D, 7F)
 There are    72 symmetry adapted basis functions of A   symmetry.
 Integral buffers will be    131072 words long.
 Raffenetti 1 integral format.
 Two-electron integral symmetry is turned on.
    72 basis functions,   141 primitive gaussians,    75 cartesian basis functions
    13 alpha electrons       13 beta electrons
       nuclear repulsion energy        81.3192514859 Hartrees.
 NAtoms=    9 NActive=    9 NUniq=    9 SFac= 7.50D-01 NAtFMM=   80 NAOKFM=F Big=F
 One-electron integrals computed using PRISM.
 NBasis=    72 RedAO= T  NBF=    72
 NBsUse=    72 1.00D-06 NBFU=    72
 Initial guess read from the read-write file:
 Initial guess orbital symmetries:
       Occupied  (A) (A) (A) (A) (A) (A) (A) (A) (A) (A) (A) (A)
                 (A)
       Virtual   (A) (A) (A) (A) (A) (A) (A) (A) (A) (A) (A) (A)
                 (A) (A) (A) (A) (A) (A) (A) (A) (A) (A) (A) (A)
                 (A) (A) (A) (A) (A) (A) (A) (A) (A) (A) (A) (A)
                 (A) (A) (A) (A) (A) (A) (A) (A) (A) (A) (A) (A)
                 (A) (A) (A) (A) (A) (A) (A) (A) (A) (A) (A)
 Requested convergence on RMS density matrix=1.00D-08 within 128 cycles.
 Requested convergence on MAX density matrix=1.00D-06.
 Requested convergence on             energy=1.00D-06.
 No special actions if energy rises.
 Keep R1 integrals in memory in canonical form, NReq=     5139848.
 SCF Done:  E(RHF) =  -154.089928855     A.U. after    9 cycles
             Convg  =    0.4096D-08             -V/T =  2.0015
             S**2   =   0.0000
 ExpMin= 1.22D-01 ExpMax= 1.17D+04 ExpMxC= 4.01D+02 IAcc=1 IRadAn=         1 AccDes= 1.00D-06
 HarFok:  IExCor= 205 AccDes= 1.00D-06 IRadAn=         1 IDoV=1
 ScaDFX=  1.000000  1.000000  1.000000  1.000000
 Range of M.O.s used for correlation:     4    72
 NBasis=    72 NAE=    13 NBE=    13 NFC=     3 NFV=     0
 NROrb=     69 NOA=    10 NOB=    10 NVA=    59 NVB=    59
 Fully direct method using O(ONN) memory.
 JobTyp=1 Pass  1:  I=   4 to  13 NPSUse=  1 ParTrn=F ParDer=F DoDerP=T.
 Spin components of T(2) and E(2):
     alpha-alpha T2 =       0.1740313839D-01 E2=     -0.5668814304D-01
     alpha-beta  T2 =       0.1117343609D+00 E2=     -0.3686126280D+00
     beta-beta   T2 =       0.1740313839D-01 E2=     -0.5668814304D-01
 ANorm=    0.1070766379D+01
 E2 =    -0.4819889141D+00 EUMP2 =    -0.15457191776908D+03
 DoAtom=TTTTTTTTT
          Differentiating once with respect to electric field.
                with respect to dipole field.
          Differentiating once with respect to nuclear coordinates.
          Store integrals in memory, NReq=     4883431.
          There are   1 degrees of freedom in the 1st order CPHF.
     1 vectors were produced by pass  0.
 AX will form   1 AO Fock derivatives at one time.
     1 vectors were produced by pass  1.
     1 vectors were produced by pass  2.
     1 vectors were produced by pass  3.
     1 vectors were produced by pass  4.
     1 vectors were produced by pass  5.
     1 vectors were produced by pass  6.
     1 vectors were produced by pass  7.
     1 vectors were produced by pass  8.
     1 vectors were produced by pass  9.
     1 vectors were produced by pass 10.
     1 vectors were produced by pass 11.
 Inv2:  IOpt= 1 Iter= 1 AM= 5.55D-16 Conv= 1.00D-12.
 Inverted reduced A of dimension   12 with in-core refinement.
 End of Minotr Frequency-dependent properties file   721 does not exist.
 ***** Axes restored to original set *****
 -------------------------------------------------------------------
 Center     Atomic                   Forces (Hartrees/Bohr)
 Number     Number              X              Y              Z
 -------------------------------------------------------------------
    1          6          -0.000418299   -0.000690046    0.000969280
    2          1           0.000014633   -0.000066134   -0.000007172
    3          1           0.000097471   -0.000115773   -0.000102473
    4          1          -0.000277390    0.000111972   -0.000069074
    5          6           0.000372857    0.001649163   -0.000683068
    6          1          -0.000011513   -0.000070108   -0.000024097
    7          1          -0.000053291    0.000138388   -0.000055131
    8          8          -0.000428070   -0.001952249   -0.001558871
    9          1           0.000703602    0.000994787    0.001530606
 -------------------------------------------------------------------
 Cartesian Forces:  Max     0.001952249 RMS     0.000753534

 GradGradGradGradGradGradGradGradGradGradGradGradGradGradGradGradGradGrad
 Berny optimization.
 Internal  Forces:  Max     0.001671864 RMS     0.000440273
 Search for a local minimum.
 Step number   3 out of a maximum of  43
 All quantities printed in internal units (Hartrees-Bohrs-Radians)
 Update second derivatives using D2CorX and points  1  2  3
 Trust test= 1.01D+00 RLast= 2.52D-02 DXMaxT set to 4.24D-01
     Eigenvalues ---    0.00363   0.04220   0.05537   0.05693   0.06025
     Eigenvalues ---    0.11587   0.12035   0.14667   0.15999   0.16003
     Eigenvalues ---    0.16725   0.23425   0.29480   0.32091   0.32282
     Eigenvalues ---    0.32289   0.32309   0.33269   0.43722   0.57560
     Eigenvalues --- 1000.000001000.000001000.000001000.000001000.00000
     Eigenvalues --- 1000.000001000.000001000.000001000.000001000.00000
     Eigenvalues --- 1000.000001000.000001000.00000
 RFO step:  Lambda=-2.91692437D-06.
 Quartic linear search produced a step of  0.00007.
 Iteration  1 RMS(Cart)=  0.00113616 RMS(Int)=  0.00000097
 Iteration  2 RMS(Cart)=  0.00000092 RMS(Int)=  0.00000016
 Iteration  1 RMS(Cart)=  0.00000026 RMS(Int)=  0.00000022
 Variable       Old X    -DE/DX   Delta X   Delta X   Delta X     New X
                                 (Linear)    (Quad)   (Total)
    R1        2.08446   0.00002   0.00000   0.00011   0.00011   2.08457
    R2        2.08162   0.00003   0.00000   0.00012   0.00012   2.08174
    R3        2.08457   0.00029   0.00000   0.00077   0.00077   2.08534
    R4        2.88065   0.00000   0.00000   0.00006   0.00006   2.88071
    R5        2.09144   0.00004   0.00000   0.00015   0.00015   2.09159
    R6        2.08668   0.00012   0.00000   0.00043   0.00043   2.08711
    R7        2.69296   0.00078   0.00000   0.00184   0.00184   2.69479
    R8        1.82274  -0.00028   0.00000  -0.00035  -0.00035   1.82239
    A1        1.88528   0.00009   0.00000   0.00033   0.00033   1.88561
    A2        1.89120   0.00008   0.00000   0.00078   0.00078   1.89197
    A3        1.93270  -0.00004   0.00000  -0.00016  -0.00016   1.93254
    A4        1.89585   0.00017   0.00000   0.00132   0.00132   1.89717
    A5        1.91855  -0.00021   0.00000  -0.00137  -0.00137   1.91718
    A6        1.93896  -0.00009   0.00000  -0.00081  -0.00081   1.93815
    A7        1.92594  -0.00065   0.00000   0.00070   0.00070   1.92664
    A8        1.91233   0.00061   0.00000  -0.00083  -0.00083   1.91150
    A9        1.94335   0.00004   0.00000   0.00016   0.00016   1.94351
   A10        1.86399   0.00001   0.00000  -0.00005  -0.00005   1.86394
   A11        1.94764  -0.00003   0.00000  -0.00063  -0.00063   1.94702
   A12        1.86773   0.00005   0.00000   0.00062   0.00062   1.86835
   A13        1.86217   0.00004   0.00000   0.00018   0.00018   1.86235
    D1        1.06335  -0.00014   0.00000  -0.00146  -0.00146   1.06189
    D2        3.11098  -0.00015   0.00000  -0.00161  -0.00161   3.10938
    D3       -1.10950   0.00033   0.00000  -0.00127  -0.00127  -1.11077
    D4       -3.13806  -0.00018   0.00000  -0.00202  -0.00202  -3.14008
    D5       -1.09042  -0.00019   0.00000  -0.00217  -0.00217  -1.09259
    D6        0.97228   0.00030   0.00000  -0.00183  -0.00183   0.97045
    D7       -1.03913  -0.00017   0.00000  -0.00179  -0.00179  -1.04092
    D8        1.00850  -0.00017   0.00000  -0.00194  -0.00194   1.00657
    D9        3.07121   0.00031   0.00000  -0.00160  -0.00160   3.06961
   D10        1.74533  -0.00167   0.00000   0.00000   0.00000   1.74533
   D11       -0.41525  -0.00084   0.00000  -0.00057  -0.00057  -0.41582
   D12       -2.44850  -0.00087   0.00000  -0.00053  -0.00053  -2.44903
         Item               Value     Threshold  Converged?
 Maximum Force            0.000778     0.000450     NO 
 RMS     Force            0.000170     0.000300     YES
 Maximum Displacement     0.002900     0.001800     NO 
 RMS     Displacement     0.001136     0.001200     YES
 Predicted change in Energy=-1.459023D-06
 GradGradGradGradGradGradGradGradGradGradGradGradGradGradGradGradGradGrad

                          Input orientation:                          
 ---------------------------------------------------------------------
 Center     Atomic     Atomic              Coordinates (Angstroms)
 Number     Number      Type              X           Y           Z
 ---------------------------------------------------------------------
    1          6             0       -1.754620    1.115420    1.231038
    2          1             0       -1.696051    0.635976    2.222775
    3          1             0       -0.839630    1.711426    1.085731
    4          1             0       -2.624265    1.794684    1.223301
    5          6             0       -1.869294    0.066633    0.130714
    6          1             0       -2.787073   -0.536765    0.267283
    7          1             0       -1.959927    0.568126   -0.849135
    8          8             0       -0.705473   -0.755436    0.073567
    9          1             0       -0.922859   -1.575868    0.531428
 ---------------------------------------------------------------------
                    Distance matrix (angstroms):
                    1          2          3          4          5
     1  C    0.000000
     2  H    1.103104   0.000000
     3  H    1.101609   1.784074   0.000000
     4  H    1.103514   1.789730   1.791865   0.000000
     5  C    1.524407   2.175060   2.162778   2.179424   0.000000
     6  H    2.173591   2.527766   3.084923   2.525100   1.106823
     7  H    2.160741   3.083969   2.511156   2.498156   1.104451
     8  O    2.437324   2.745245   2.669809   3.392162   1.426023
     9  H    2.902466   2.889763   3.334738   3.838501   1.937555
                    6          7          8          9
     6  H    0.000000
     7  H    1.775202   0.000000
     8  O    2.101999   2.043734   0.000000
     9  H    2.150535   2.752848   0.964366   0.000000
 Stoichiometry    C2H6O
 Framework group  C1[X(C2H6O)]
 Deg. of freedom    21
 Full point group                 C1
 Largest Abelian subgroup         C1      NOp   1
 Largest concise Abelian subgroup C1      NOp   1
                         Standard orientation:                         
 ---------------------------------------------------------------------
 Center     Atomic     Atomic              Coordinates (Angstroms)
 Number     Number      Type              X           Y           Z
 ---------------------------------------------------------------------
    1          6             0        1.222577   -0.241353    0.008501
    2          1             0        1.273693   -0.911235    0.883422
    3          1             0        1.282972   -0.861545   -0.899936
    4          1             0        2.095371    0.433387    0.034911
    5          6             0       -0.080828    0.549185    0.009733
    6          1             0       -0.150106    1.177105    0.918565
    7          1             0       -0.096548    1.236262   -0.854843
    8          8             0       -1.210359   -0.311597   -0.119718
    9          1             0       -1.573001   -0.428188    0.766227
 ---------------------------------------------------------------------
 Rotational constants (GHZ):     34.3635609      9.1011755      8.1096223
 Standard basis: CC-pVDZ (5D, 7F)
 There are    72 symmetry adapted basis functions of A   symmetry.
 Integral buffers will be    131072 words long.
 Raffenetti 1 integral format.
 Two-electron integral symmetry is turned on.
    72 basis functions,   141 primitive gaussians,    75 cartesian basis functions
    13 alpha electrons       13 beta electrons
       nuclear repulsion energy        81.2983633663 Hartrees.
 NAtoms=    9 NActive=    9 NUniq=    9 SFac= 7.50D-01 NAtFMM=   80 NAOKFM=F Big=F
 One-electron integrals computed using PRISM.
 NBasis=    72 RedAO= T  NBF=    72
 NBsUse=    72 1.00D-06 NBFU=    72
 Initial guess read from the read-write file:
 Initial guess orbital symmetries:
       Occupied  (A) (A) (A) (A) (A) (A) (A) (A) (A) (A) (A) (A)
                 (A)
       Virtual   (A) (A) (A) (A) (A) (A) (A) (A) (A) (A) (A) (A)
                 (A) (A) (A) (A) (A) (A) (A) (A) (A) (A) (A) (A)
                 (A) (A) (A) (A) (A) (A) (A) (A) (A) (A) (A) (A)
                 (A) (A) (A) (A) (A) (A) (A) (A) (A) (A) (A) (A)
                 (A) (A) (A) (A) (A) (A) (A) (A) (A) (A) (A)
 Requested convergence on RMS density matrix=1.00D-08 within 128 cycles.
 Requested convergence on MAX density matrix=1.00D-06.
 Requested convergence on             energy=1.00D-06.
 No special actions if energy rises.
 Keep R1 integrals in memory in canonical form, NReq=     5139848.
 SCF Done:  E(RHF) =  -154.089902145     A.U. after    8 cycles
             Convg  =    0.5380D-08             -V/T =  2.0015
             S**2   =   0.0000
 ExpMin= 1.22D-01 ExpMax= 1.17D+04 ExpMxC= 4.01D+02 IAcc=1 IRadAn=         1 AccDes= 1.00D-06
 HarFok:  IExCor= 205 AccDes= 1.00D-06 IRadAn=         1 IDoV=1
 ScaDFX=  1.000000  1.000000  1.000000  1.000000
 Range of M.O.s used for correlation:     4    72
 NBasis=    72 NAE=    13 NBE=    13 NFC=     3 NFV=     0
 NROrb=     69 NOA=    10 NOB=    10 NVA=    59 NVB=    59
 Fully direct method using O(ONN) memory.
 JobTyp=1 Pass  1:  I=   4 to  13 NPSUse=  1 ParTrn=F ParDer=F DoDerP=T.
 Spin components of T(2) and E(2):
     alpha-alpha T2 =       0.1740649225D-01 E2=     -0.5668830307D-01
     alpha-beta  T2 =       0.1117650149D+00 E2=     -0.3686405632D+00
     beta-beta   T2 =       0.1740649225D-01 E2=     -0.5668830307D-01
 ANorm=    0.1070783825D+01
 E2 =    -0.4820171693D+00 EUMP2 =    -0.15457191931394D+03
 DoAtom=TTTTTTTTT
          Differentiating once with respect to electric field.
                with respect to dipole field.
          Differentiating once with respect to nuclear coordinates.
          Store integrals in memory, NReq=     4883431.
          There are   1 degrees of freedom in the 1st order CPHF.
     1 vectors were produced by pass  0.
 AX will form   1 AO Fock derivatives at one time.
     1 vectors were produced by pass  1.
     1 vectors were produced by pass  2.
     1 vectors were produced by pass  3.
     1 vectors were produced by pass  4.
     1 vectors were produced by pass  5.
     1 vectors were produced by pass  6.
     1 vectors were produced by pass  7.
     1 vectors were produced by pass  8.
     1 vectors were produced by pass  9.
     1 vectors were produced by pass 10.
     1 vectors were produced by pass 11.
 Inv2:  IOpt= 1 Iter= 1 AM= 3.86D-16 Conv= 1.00D-12.
 Inverted reduced A of dimension   12 with in-core refinement.
 End of Minotr Frequency-dependent properties file   721 does not exist.
 ***** Axes restored to original set *****
 -------------------------------------------------------------------
 Center     Atomic                   Forces (Hartrees/Bohr)
 Number     Number              X              Y              Z
 -------------------------------------------------------------------
    1          6          -0.000510699   -0.000781299    0.000875620
    2          1          -0.000004704    0.000016887   -0.000022478
    3          1          -0.000010111   -0.000031604   -0.000020907
    4          1           0.000008116   -0.000005007   -0.000001987
    5          6           0.000662712    0.001304160   -0.000788945
    6          1           0.000031167   -0.000007608   -0.000004525
    7          1           0.000057070   -0.000043811    0.000023466
    8          8          -0.000813717   -0.001302164   -0.001687036
    9          1           0.000580166    0.000850445    0.001626791
 -------------------------------------------------------------------
 Cartesian Forces:  Max     0.001687036 RMS     0.000702371

 GradGradGradGradGradGradGradGradGradGradGradGradGradGradGradGradGradGrad
 Berny optimization.
 Internal  Forces:  Max     0.001706698 RMS     0.000417259
 Search for a local minimum.
 Step number   4 out of a maximum of  43
 All quantities printed in internal units (Hartrees-Bohrs-Radians)
 Update second derivatives using D2CorX and points  1  2  3  4
 Trust test= 1.06D+00 RLast= 6.32D-03 DXMaxT set to 4.24D-01
     Eigenvalues ---    0.00355   0.04199   0.05515   0.05645   0.06043
     Eigenvalues ---    0.11022   0.12413   0.13782   0.15977   0.16675
     Eigenvalues ---    0.17357   0.23360   0.29425   0.32172   0.32280
     Eigenvalues ---    0.32309   0.33097   0.33779   0.42359   0.56422
     Eigenvalues --- 1000.000001000.000001000.000001000.000001000.00000
     Eigenvalues --- 1000.000001000.000001000.000001000.000001000.00000
     Eigenvalues --- 1000.000001000.000001000.00000
 RFO step:  Lambda=-2.55864229D-07.
 Quartic linear search produced a step of  0.06362.
 Iteration  1 RMS(Cart)=  0.00044668 RMS(Int)=  0.00000015
 Iteration  2 RMS(Cart)=  0.00000014 RMS(Int)=  0.00000004
 Iteration  1 RMS(Cart)=  0.00000013 RMS(Int)=  0.00000011
 Variable       Old X    -DE/DX   Delta X   Delta X   Delta X     New X
                                 (Linear)    (Quad)   (Total)
    R1        2.08457  -0.00003   0.00001  -0.00008  -0.00007   2.08449
    R2        2.08174  -0.00002   0.00001  -0.00007  -0.00006   2.08168
    R3        2.08534  -0.00001   0.00005  -0.00003   0.00002   2.08535
    R4        2.88071   0.00001   0.00000   0.00004   0.00005   2.88076
    R5        2.09159  -0.00002   0.00001  -0.00007  -0.00006   2.09154
    R6        2.08711  -0.00005   0.00003  -0.00013  -0.00010   2.08701
    R7        2.69479   0.00007   0.00012   0.00023   0.00035   2.69514
    R8        1.82239  -0.00008  -0.00002  -0.00014  -0.00016   1.82223
    A1        1.88561   0.00001   0.00002   0.00008   0.00010   1.88571
    A2        1.89197   0.00000   0.00005   0.00009   0.00014   1.89211
    A3        1.93254   0.00002  -0.00001   0.00015   0.00014   1.93268
    A4        1.89717   0.00002   0.00008   0.00014   0.00022   1.89739
    A5        1.91718  -0.00005  -0.00009  -0.00040  -0.00049   1.91670
    A6        1.93815   0.00001  -0.00005  -0.00005  -0.00010   1.93805
    A7        1.92664  -0.00068   0.00004   0.00036   0.00041   1.92705
    A8        1.91150   0.00077  -0.00005   0.00018   0.00012   1.91162
    A9        1.94351  -0.00003   0.00001  -0.00012  -0.00011   1.94340
   A10        1.86394   0.00000   0.00000   0.00025   0.00025   1.86419
   A11        1.94702   0.00004  -0.00004  -0.00007  -0.00011   1.94690
   A12        1.86835  -0.00005   0.00004  -0.00060  -0.00056   1.86778
   A13        1.86235  -0.00011   0.00001  -0.00075  -0.00073   1.86161
    D1        1.06189  -0.00017  -0.00009  -0.00069  -0.00078   1.06111
    D2        3.10938  -0.00011  -0.00010  -0.00006  -0.00016   3.10921
    D3       -1.11077   0.00029  -0.00008  -0.00077  -0.00085  -1.11162
    D4       -3.14008  -0.00018  -0.00013  -0.00075  -0.00088  -3.14096
    D5       -1.09259  -0.00012  -0.00014  -0.00012  -0.00026  -1.09285
    D6        0.97045   0.00029  -0.00012  -0.00083  -0.00095   0.96950
    D7       -1.04092  -0.00018  -0.00011  -0.00087  -0.00098  -1.04190
    D8        1.00657  -0.00012  -0.00012  -0.00024  -0.00036   1.00620
    D9        3.06961   0.00028  -0.00010  -0.00095  -0.00105   3.06856
   D10        1.74533  -0.00171   0.00000   0.00000   0.00000   1.74533
   D11       -0.41582  -0.00083  -0.00004  -0.00032  -0.00036  -0.41618
   D12       -2.44903  -0.00082  -0.00003  -0.00023  -0.00027  -2.44929
         Item               Value     Threshold  Converged?
 Maximum Force            0.000111     0.000450     YES
 RMS     Force            0.000035     0.000300     YES
 Maximum Displacement     0.001314     0.001800     YES
 RMS     Displacement     0.000447     0.001200     YES
 Predicted change in Energy=-1.325280D-07
 Optimization completed.
    -- Stationary point found.
                           ----------------------------
                           !   Optimized Parameters   !
                           ! (Angstroms and Degrees)  !
 --------------------------                            --------------------------
 ! Name  Definition              Value          Derivative Info.                !
 --------------------------------------------------------------------------------
 ! R1    R(1,2)                  1.1031         -DE/DX =    0.0                 !
 ! R2    R(1,3)                  1.1016         -DE/DX =    0.0                 !
 ! R3    R(1,4)                  1.1035         -DE/DX =    0.0                 !
 ! R4    R(1,5)                  1.5244         -DE/DX =    0.0                 !
 ! R5    R(5,6)                  1.1068         -DE/DX =    0.0                 !
 ! R6    R(5,7)                  1.1045         -DE/DX =    0.0                 !
 ! R7    R(5,8)                  1.426          -DE/DX =    0.0001              !
 ! R8    R(8,9)                  0.9644         -DE/DX =   -0.0001              !
 ! A1    A(2,1,3)              108.0374         -DE/DX =    0.0                 !
 ! A2    A(2,1,4)              108.4019         -DE/DX =    0.0                 !
 ! A3    A(2,1,5)              110.7262         -DE/DX =    0.0                 !
 ! A4    A(3,1,4)              108.6998         -DE/DX =    0.0                 !
 ! A5    A(3,1,5)              109.8465         -DE/DX =    0.0                 !
 ! A6    A(4,1,5)              111.048          -DE/DX =    0.0                 !
 ! A7    A(1,5,6)              110.3885         -DE/DX =   -0.0007              !
 ! A8    A(1,5,7)              109.5208         -DE/DX =    0.0008              !
 ! A9    A(1,5,8)              111.355          -DE/DX =    0.0                 !
 ! A10   A(6,5,7)              106.7958         -DE/DX =    0.0                 !
 ! A11   A(6,5,8)              111.5558         -DE/DX =    0.0                 !
 ! A12   A(7,5,8)              107.0483         -DE/DX =   -0.0001              !
 ! A13   A(5,8,9)              106.7047         -DE/DX =   -0.0001              !
 ! D1    D(2,1,5,6)             60.8417         -DE/DX =   -0.0002              !
 ! D2    D(2,1,5,7)            178.1541         -DE/DX =   -0.0001              !
 ! D3    D(2,1,5,8)            -63.6424         -DE/DX =    0.0003              !
 ! D4    D(3,1,5,6)           -179.9134         -DE/DX =   -0.0002              !
 ! D5    D(3,1,5,7)            -62.601          -DE/DX =   -0.0001              !
 ! D6    D(3,1,5,8)             55.6025         -DE/DX =    0.0003              !
 ! D7    D(4,1,5,6)            -59.6404         -DE/DX =   -0.0002              !
 ! D8    D(4,1,5,7)             57.672          -DE/DX =   -0.0001              !
 ! D9    D(4,1,5,8)            175.8755         -DE/DX =    0.0003              !
 ! D10   D(1,5,8,9)             100.0           -DE/DX =   -0.0017              !
 ! D11   D(6,5,8,9)            -23.8246         -DE/DX =   -0.0008              !
 ! D12   D(7,5,8,9)           -140.319          -DE/DX =   -0.0008              !
 --------------------------------------------------------------------------------
 GradGradGradGradGradGradGradGradGradGradGradGradGradGradGradGradGradGrad

                          Input orientation:                          
 ---------------------------------------------------------------------
 Center     Atomic     Atomic              Coordinates (Angstroms)
 Number     Number      Type              X           Y           Z
 ---------------------------------------------------------------------
    1          6             0       -1.754620    1.115420    1.231038
    2          1             0       -1.696051    0.635976    2.222775
    3          1             0       -0.839630    1.711426    1.085731
    4          1             0       -2.624265    1.794684    1.223301
    5          6             0       -1.869294    0.066633    0.130714
    6          1             0       -2.787073   -0.536765    0.267283
    7          1             0       -1.959927    0.568126   -0.849135
    8          8             0       -0.705473   -0.755436    0.073567
    9          1             0       -0.922859   -1.575868    0.531428
 ---------------------------------------------------------------------
                    Distance matrix (angstroms):
                    1          2          3          4          5
     1  C    0.000000
     2  H    1.103104   0.000000
     3  H    1.101609   1.784074   0.000000
     4  H    1.103514   1.789730   1.791865   0.000000
     5  C    1.524407   2.175060   2.162778   2.179424   0.000000
     6  H    2.173591   2.527766   3.084923   2.525100   1.106823
     7  H    2.160741   3.083969   2.511156   2.498156   1.104451
     8  O    2.437324   2.745245   2.669809   3.392162   1.426023
     9  H    2.902466   2.889763   3.334738   3.838501   1.937555
                    6          7          8          9
     6  H    0.000000
     7  H    1.775202   0.000000
     8  O    2.101999   2.043734   0.000000
     9  H    2.150535   2.752848   0.964366   0.000000
 Stoichiometry    C2H6O
 Framework group  C1[X(C2H6O)]
 Deg. of freedom    21
 Full point group                 C1
 Largest Abelian subgroup         C1      NOp   1
 Largest concise Abelian subgroup C1      NOp   1
                         Standard orientation:                         
 ---------------------------------------------------------------------
 Center     Atomic     Atomic              Coordinates (Angstroms)
 Number     Number      Type              X           Y           Z
 ---------------------------------------------------------------------
    1          6             0        1.222577   -0.241353    0.008501
    2          1             0        1.273693   -0.911235    0.883422
    3          1             0        1.282972   -0.861545   -0.899936
    4          1             0        2.095371    0.433387    0.034911
    5          6             0       -0.080828    0.549185    0.009733
    6          1             0       -0.150106    1.177105    0.918565
    7          1             0       -0.096548    1.236262   -0.854843
    8          8             0       -1.210359   -0.311597   -0.119718
    9          1             0       -1.573001   -0.428188    0.766227
 ---------------------------------------------------------------------
 Rotational constants (GHZ):     34.3635609      9.1011755      8.1096223

 **********************************************************************

            Population analysis using the SCF density.

 **********************************************************************

 Orbital symmetries:
       Occupied  (A) (A) (A) (A) (A) (A) (A) (A) (A) (A) (A) (A)
                 (A)
       Virtual   (A) (A) (A) (A) (A) (A) (A) (A) (A) (A) (A) (A)
                 (A) (A) (A) (A) (A) (A) (A) (A) (A) (A) (A) (A)
                 (A) (A) (A) (A) (A) (A) (A) (A) (A) (A) (A) (A)
                 (A) (A) (A) (A) (A) (A) (A) (A) (A) (A) (A) (A)
                 (A) (A) (A) (A) (A) (A) (A) (A) (A) (A) (A)
 The electronic state is 1-A.
 Alpha  occ. eigenvalues --  -20.54978 -11.27987 -11.22305  -1.35058  -1.00564
 Alpha  occ. eigenvalues --   -0.83410  -0.69025  -0.62080  -0.57351  -0.54842
 Alpha  occ. eigenvalues --   -0.51751  -0.47318  -0.43530
 Alpha virt. eigenvalues --    0.17663   0.21578   0.23625   0.25615   0.26696
 Alpha virt. eigenvalues --    0.28570   0.38757   0.39650   0.59713   0.61923
 Alpha virt. eigenvalues --    0.67184   0.72632   0.74920   0.81234   0.84581
 Alpha virt. eigenvalues --    0.87764   0.88840   0.89101   0.89683   0.92830
 Alpha virt. eigenvalues --    1.12665   1.13379   1.17610   1.27268   1.33700
 Alpha virt. eigenvalues --    1.34934   1.46745   1.51641   1.58061   1.65261
 Alpha virt. eigenvalues --    1.68265   1.72876   1.84052   1.86237   1.88768
 Alpha virt. eigenvalues --    1.92212   1.93344   1.95828   1.97055   2.02862
 Alpha virt. eigenvalues --    2.06197   2.16951   2.25566   2.27454   2.35399
 Alpha virt. eigenvalues --    2.42648   2.50883   2.51508   2.54469   2.73441
 Alpha virt. eigenvalues --    2.74473   2.79312   2.85188   2.89508   3.32088
 Alpha virt. eigenvalues --    3.39732   3.46283   3.62049   4.09264
          Condensed to atoms (all electrons):
              1          2          3          4          5          6
     1  C    4.588829   0.397642   0.404089   0.389837   0.422848  -0.039020
     2  H    0.397642   0.648579  -0.027268  -0.022589  -0.027705  -0.007961
     3  H    0.404089  -0.027268   0.624521  -0.021999  -0.026358   0.008052
     4  H    0.389837  -0.022589  -0.021999   0.652723  -0.024708  -0.001010
     5  C    0.422848  -0.027705  -0.026358  -0.024708   4.425792   0.409509
     6  H   -0.039020  -0.007961   0.008052  -0.001010   0.409509   0.691202
     7  H   -0.043455   0.007704  -0.007736  -0.000998   0.409511  -0.037139
     8  O   -0.048825   0.002744   0.001819   0.003468   0.303826  -0.026137
     9  H    0.001561   0.002030  -0.000804  -0.000265  -0.041965  -0.014427
              7          8          9
     1  C   -0.043455  -0.048825   0.001561
     2  H    0.007704   0.002744   0.002030
     3  H   -0.007736   0.001819  -0.000804
     4  H   -0.000998   0.003468  -0.000265
     5  C    0.409511   0.303826  -0.041965
     6  H   -0.037139  -0.026137  -0.014427
     7  H    0.657113  -0.026653   0.007471
     8  O   -0.026653   7.817874   0.360121
     9  H    0.007471   0.360121   0.522949
 Mulliken atomic charges:
              1
     1  C   -0.073506
     2  H    0.026825
     3  H    0.045684
     4  H    0.025541
     5  C    0.149250
     6  H    0.016932
     7  H    0.034182
     8  O   -0.388236
     9  H    0.163329
 Sum of Mulliken charges=   0.00000
 Atomic charges with hydrogens summed into heavy atoms:
              1
     1  C    0.024543
     2  H    0.000000
     3  H    0.000000
     4  H    0.000000
     5  C    0.200364
     6  H    0.000000
     7  H    0.000000
     8  O   -0.224907
     9  H    0.000000
 Sum of Mulliken charges=   0.00000
 Electronic spatial extent (au):  <R**2>=   195.9416
 Charge=     0.0000 electrons
 Dipole moment (field-independent basis, Debye):
    X=     0.5874    Y=     0.6844    Z=     1.5319  Tot=     1.7777
 Quadrupole moment (field-independent basis, Debye-Ang):
   XX=   -20.6039   YY=   -20.0230   ZZ=   -18.5229
   XY=     0.0733   XZ=    -2.8821   YZ=    -0.8206
 Traceless Quadrupole moment (field-independent basis, Debye-Ang):
   XX=    -0.8873   YY=    -0.3064   ZZ=     1.1937
   XY=     0.0733   XZ=    -2.8821   YZ=    -0.8206
 Octapole moment (field-independent basis, Debye-Ang**2):
  XXX=    -7.3897  YYY=    -0.7401  ZZZ=     1.0228  XYY=    -1.8040
  XXY=    -0.4188  XXZ=     4.5694  XZZ=    -3.8594  YZZ=    -0.9020
  YYZ=     0.3299  XYZ=     1.3373
 Hexadecapole moment (field-independent basis, Debye-Ang**3):
 XXXX=  -155.9849 YYYY=   -56.1663 ZZZZ=   -33.1941 XXXY=     6.3246
 XXXZ=    -8.2638 YYYX=     2.3367 YYYZ=    -0.6430 ZZZX=    -2.8780
 ZZZY=    -0.7538 XXYY=   -35.1717 XXZZ=   -29.8727 YYZZ=   -13.4416
 XXYZ=    -1.8604 YYXZ=    -0.8799 ZZXY=     0.6681
 N-N= 8.129836336626D+01 E-N=-5.244332006389D+02  KE= 1.538606374100D+02

 Test job not archived.
 1\1\GINC-ELF43\FOpt\RMP2-FC\CC-pVDZ\C2H6O1\CJWU\26-Feb-2009\0\\# MP2/c
 c-pvdz opt=modredundant maxdisk=30GB test\\Generated with COMPARE prog
 ram by Chuanjie Wu\\0,1\C,-1.7546196665,1.1154198764,1.2310377847\H,-1
 .6960510652,0.6359762581,2.2227751749\H,-0.8396300715,1.7114257335,1.0
 857307454\H,-2.6242650982,1.7946838868,1.2233010051\C,-1.8692939783,0.
 0666327482,0.1307137047\H,-2.7870728794,-0.536765071,0.2672830765\H,-1
 .9599268674,0.5681256326,-0.8491349445\O,-0.7054731987,-0.7554364445,0
 .0735670499\H,-0.9228591747,-1.5758676201,0.5314284032\\Version=EM64M-
 G03RevE.01\State=1-A\HF=-154.0899021\MP2=-154.5719193\RMSD=5.380e-09\R
 MSF=7.024e-04\Thermal=0.\Dipole=-0.5209989,-0.2128586,0.285286\PG=C01 
 [X(C2H6O1)]\\@


 IF YOU DON'T HAVE THE LAW - ARGUE THE FACTS.
 IF YOU DON'T HAVE THE FACTS - ARGUE THE LAW.
 IF YOU DON'T HAVE EITHER - POUND THE TABLE.
 Job cpu time:  0 days  0 hours  0 minutes 51.9 seconds.
 File lengths (MBytes):  RWF=     13 Int=      0 D2E=      0 Chk=      6 Scr=      1
 Normal termination of Gaussian 03 at Thu Feb 26 18:39:58 2009.
