 Entering Gaussian System, Link 0=g03
 Input=potscan_8.gjf
 Output=potscan_8.log
 Initial command:
 /local/gaussian/g03/bin-macosx/l1.exe /scratch/cjwu/Gau-53390.inp -scrdir=/scratch/cjwu/
 Entering Link 1 = /local/gaussian/g03/bin-macosx/l1.exe PID=     53391.
  
 Copyright (c) 1988,1990,1992,1993,1995,1998,2003,2004,2007, Gaussian, Inc.
                  All Rights Reserved.
  
 This is the Gaussian(R) 03 program.  It is based on the
 the Gaussian(R) 98 system (copyright 1998, Gaussian, Inc.),
 the Gaussian(R) 94 system (copyright 1995, Gaussian, Inc.),
 the Gaussian 92(TM) system (copyright 1992, Gaussian, Inc.),
 the Gaussian 90(TM) system (copyright 1990, Gaussian, Inc.),
 the Gaussian 88(TM) system (copyright 1988, Gaussian, Inc.),
 the Gaussian 86(TM) system (copyright 1986, Carnegie Mellon
 University), and the Gaussian 82(TM) system (copyright 1983,
 Carnegie Mellon University). Gaussian is a federally registered
 trademark of Gaussian, Inc.
  
 This software contains proprietary and confidential information,
 including trade secrets, belonging to Gaussian, Inc.
  
 This software is provided under written license and may be
 used, copied, transmitted, or stored only in accord with that
 written license.
  
 The following legend is applicable only to US Government
 contracts under FAR:
  
                    RESTRICTED RIGHTS LEGEND
  
 Use, reproduction and disclosure by the US Government is
 subject to restrictions as set forth in subparagraphs (a)
 and (c) of the Commercial Computer Software - Restricted
 Rights clause in FAR 52.227-19.
  
 Gaussian, Inc.
 340 Quinnipiac St., Bldg. 40, Wallingford CT 06492
  
  
 ---------------------------------------------------------------
 Warning -- This program may not be used in any manner that
 competes with the business of Gaussian, Inc. or will provide
 assistance to any competitor of Gaussian, Inc.  The licensee
 of this program is prohibited from giving any competitor of
 Gaussian, Inc. access to this program.  By using this program,
 the user acknowledges that Gaussian, Inc. is engaged in the
 business of creating and licensing software in the field of
 computational chemistry and represents and warrants to the
 licensee that it is not a competitor of Gaussian, Inc. and that
 it will not use this program in any manner prohibited above.
 ---------------------------------------------------------------
  

 Cite this work as:
 Gaussian 03, Revision E.01,
 M. J. Frisch, G. W. Trucks, H. B. Schlegel, G. E. Scuseria, 
 M. A. Robb, J. R. Cheeseman, J. A. Montgomery, Jr., T. Vreven, 
 K. N. Kudin, J. C. Burant, J. M. Millam, S. S. Iyengar, J. Tomasi, 
 V. Barone, B. Mennucci, M. Cossi, G. Scalmani, N. Rega, 
 G. A. Petersson, H. Nakatsuji, M. Hada, M. Ehara, K. Toyota, 
 R. Fukuda, J. Hasegawa, M. Ishida, T. Nakajima, Y. Honda, O. Kitao, 
 H. Nakai, M. Klene, X. Li, J. E. Knox, H. P. Hratchian, J. B. Cross, 
 V. Bakken, C. Adamo, J. Jaramillo, R. Gomperts, R. E. Stratmann, 
 O. Yazyev, A. J. Austin, R. Cammi, C. Pomelli, J. W. Ochterski, 
 P. Y. Ayala, K. Morokuma, G. A. Voth, P. Salvador, J. J. Dannenberg, 
 V. G. Zakrzewski, S. Dapprich, A. D. Daniels, M. C. Strain, 
 O. Farkas, D. K. Malick, A. D. Rabuck, K. Raghavachari, 
 J. B. Foresman, J. V. Ortiz, Q. Cui, A. G. Baboul, S. Clifford, 
 J. Cioslowski, B. B. Stefanov, G. Liu, A. Liashenko, P. Piskorz, 
 I. Komaromi, R. L. Martin, D. J. Fox, T. Keith, M. A. Al-Laham, 
 C. Y. Peng, A. Nanayakkara, M. Challacombe, P. M. W. Gill, 
 B. Johnson, W. Chen, M. W. Wong, C. Gonzalez, and J. A. Pople, 
 Gaussian, Inc., Wallingford CT, 2004.
 
 ******************************************
 Gaussian 03:  EM64M-G03RevE.01 11-Sep-2007
                26-Feb-2009 
 ******************************************
 %chk=potscan_8.chk
 %mem=50mw
 ------------------------------------------------
 # MP2/cc-pvdz opt=modredundant maxdisk=30GB test
 ------------------------------------------------
 1/18=120,38=1/1,3;
 2/9=110,17=6,18=5,40=1/2;
 3/5=16,11=9,16=1,25=1,30=1/1,2,3;
 4//1;
 5/5=2,38=5/2;
 8/6=4,10=1/1;
 9/15=2,16=-3/6;
 10/5=1/2;
 6/7=2,8=2,9=2,10=2/1;
 7/12=2/1,2,3,16;
 1/18=20/3(3);
 2/9=110/2;
 6/7=2,8=2,9=2,10=2/1;
 99//99;
 2/9=110/2;
 3/5=16,11=9,16=1,25=1,30=1/1,2,3;
 4/5=5,16=3/1;
 5/5=2,38=5/2;
 8/6=4,10=1/1;
 9/15=2,16=-3/6;
 10/5=1/2;
 7/12=2/1,2,3,16;
 1/18=20/3(-8);
 2/9=110/2;
 6/7=2,8=2,9=2,10=2/1;
 99//99;
 ---------------------------------------------
 Generated with COMPARE program by Chuanjie Wu
 ---------------------------------------------
 Symbolic Z-matrix:
 Charge =  0 Multiplicity = 1
 C                    -1.74598   1.10669   1.22578 
 H                    -1.64917   0.62059   2.2221 
 H                    -0.84916   1.7487    1.07707 
 H                    -2.6352    1.7745    1.26124 
 C                    -1.87464   0.06752   0.10953 
 H                    -2.78411  -0.55415   0.27296 
 H                    -1.97606   0.56903  -0.8786 
 O                    -0.72062  -0.75435   0.10153 
 H                    -0.93239  -1.55722  -0.3559 
 
 The following ModRedundant input section has been read:
 D    1    5    8    9 F                                                       

 GradGradGradGradGradGradGradGradGradGradGradGradGradGradGradGradGradGrad
 Berny optimization.
 Initialization pass.
                           ----------------------------
                           !    Initial Parameters    !
                           ! (Angstroms and Degrees)  !
 --------------------------                            --------------------------
 ! Name  Definition              Value          Derivative Info.                !
 --------------------------------------------------------------------------------
 ! R1    R(1,2)                  1.1128         estimate D2E/DX2                !
 ! R2    R(1,3)                  1.1129         estimate D2E/DX2                !
 ! R3    R(1,4)                  1.1126         estimate D2E/DX2                !
 ! R4    R(1,5)                  1.5305         estimate D2E/DX2                !
 ! R5    R(5,6)                  1.1137         estimate D2E/DX2                !
 ! R6    R(5,7)                  1.1127         estimate D2E/DX2                !
 ! R7    R(5,8)                  1.4168         estimate D2E/DX2                !
 ! R8    R(8,9)                  0.948          estimate D2E/DX2                !
 ! A1    A(2,1,3)              107.5493         estimate D2E/DX2                !
 ! A2    A(2,1,4)              107.649          estimate D2E/DX2                !
 ! A3    A(2,1,5)              111.3282         estimate D2E/DX2                !
 ! A4    A(3,1,4)              107.5807         estimate D2E/DX2                !
 ! A5    A(3,1,5)              111.2207         estimate D2E/DX2                !
 ! A6    A(4,1,5)              111.3203         estimate D2E/DX2                !
 ! A7    A(1,5,6)              109.9151         estimate D2E/DX2                !
 ! A8    A(1,5,7)              110.445          estimate D2E/DX2                !
 ! A9    A(1,5,8)              109.2392         estimate D2E/DX2                !
 ! A10   A(6,5,7)              107.9061         estimate D2E/DX2                !
 ! A11   A(6,5,8)              110.0099         estimate D2E/DX2                !
 ! A12   A(7,5,8)              109.3099         estimate D2E/DX2                !
 ! A13   A(5,8,9)              108.1832         estimate D2E/DX2                !
 ! D1    D(2,1,5,6)             60.7401         estimate D2E/DX2                !
 ! D2    D(2,1,5,7)            179.6908         estimate D2E/DX2                !
 ! D3    D(2,1,5,8)            -60.0516         estimate D2E/DX2                !
 ! D4    D(3,1,5,6)           -179.336          estimate D2E/DX2                !
 ! D5    D(3,1,5,7)            -60.3853         estimate D2E/DX2                !
 ! D6    D(3,1,5,8)             59.8723         estimate D2E/DX2                !
 ! D7    D(4,1,5,6)            -59.3776         estimate D2E/DX2                !
 ! D8    D(4,1,5,7)             59.5731         estimate D2E/DX2                !
 ! D9    D(4,1,5,8)            179.8307         estimate D2E/DX2                !
 ! D10   D(1,5,8,9)            160.0            Frozen                          !
 ! D11   D(6,5,8,9)             39.2662         estimate D2E/DX2                !
 ! D12   D(7,5,8,9)            -79.0486         estimate D2E/DX2                !
 --------------------------------------------------------------------------------
 Trust Radius=3.00D-01 FncErr=1.00D-07 GrdErr=1.00D-07
 Number of steps in this run=  43 maximum allowed number of steps= 100.
 GradGradGradGradGradGradGradGradGradGradGradGradGradGradGradGradGradGrad

                          Input orientation:                          
 ---------------------------------------------------------------------
 Center     Atomic     Atomic              Coordinates (Angstroms)
 Number     Number      Type              X           Y           Z
 ---------------------------------------------------------------------
    1          6             0       -1.745979    1.106694    1.225781
    2          1             0       -1.649167    0.620591    2.222096
    3          1             0       -0.849161    1.748697    1.077068
    4          1             0       -2.635204    1.774499    1.261239
    5          6             0       -1.874638    0.067519    0.109528
    6          1             0       -2.784105   -0.554149    0.272956
    7          1             0       -1.976063    0.569027   -0.878596
    8          8             0       -0.720620   -0.754349    0.101531
    9          1             0       -0.932389   -1.557215   -0.355896
 ---------------------------------------------------------------------
                    Distance matrix (angstroms):
                    1          2          3          4          5
     1  C    0.000000
     2  H    1.112795   0.000000
     3  H    1.112909   1.795473   0.000000
     4  H    1.112628   1.796390   1.795699   0.000000
     5  C    1.530509   2.195375   2.194105   2.195149   0.000000
     6  H    2.178068   2.543078   3.113471   2.534063   1.113692
     7  H    2.184131   3.118303   2.546792   2.542936   1.112738
     8  O    2.403909   2.692481   2.689505   3.377222   1.416788
     9  H    3.203130   3.450022   3.604076   4.076153   1.934997
                    6          7          8          9
     6  H    0.000000
     7  H    1.800147   0.000000
     8  O    2.080249   2.070775   0.000000
     9  H    2.197828   2.425567   0.947987   0.000000
 Stoichiometry    C2H6O
 Framework group  C1[X(C2H6O)]
 Deg. of freedom    21
 Full point group                 C1
 Largest Abelian subgroup         C1      NOp   1
 Largest concise Abelian subgroup C1      NOp   1
                         Standard orientation:                         
 ---------------------------------------------------------------------
 Center     Atomic     Atomic              Coordinates (Angstroms)
 Number     Number      Type              X           Y           Z
 ---------------------------------------------------------------------
    1          6             0        1.234722   -0.213228    0.014590
    2          1             0        1.313630   -0.859581    0.916983
    3          1             0        1.347485   -0.868107   -0.878150
    4          1             0        2.097020    0.489791    0.026751
    5          6             0       -0.097138    0.540222   -0.015730
    6          1             0       -0.181986    1.196870    0.879772
    7          1             0       -0.158147    1.185538   -0.920181
    8          8             0       -1.161861   -0.394289   -0.034282
    9          1             0       -1.948617    0.047835    0.255926
 ---------------------------------------------------------------------
 Rotational constants (GHZ):     35.1299742      9.1597626      8.0381877
 Standard basis: CC-pVDZ (5D, 7F)
 There are    72 symmetry adapted basis functions of A   symmetry.
 Integral buffers will be    131072 words long.
 Raffenetti 1 integral format.
 Two-electron integral symmetry is turned on.
    72 basis functions,   141 primitive gaussians,    75 cartesian basis functions
    13 alpha electrons       13 beta electrons
       nuclear repulsion energy        81.2734562947 Hartrees.
 NAtoms=    9 NActive=    9 NUniq=    9 SFac= 7.50D-01 NAtFMM=   80 NAOKFM=F Big=F
 One-electron integrals computed using PRISM.
 NBasis=    72 RedAO= T  NBF=    72
 NBsUse=    72 1.00D-06 NBFU=    72
 Harris functional with IExCor=  205 diagonalized for initial guess.
 ExpMin= 1.22D-01 ExpMax= 1.17D+04 ExpMxC= 4.01D+02 IAcc=1 IRadAn=         1 AccDes= 1.00D-06
 HarFok:  IExCor= 205 AccDes= 1.00D-06 IRadAn=         1 IDoV=1
 ScaDFX=  1.000000  1.000000  1.000000  1.000000
 Initial guess orbital symmetries:
       Occupied  (A) (A) (A) (A) (A) (A) (A) (A) (A) (A) (A) (A)
                 (A)
       Virtual   (A) (A) (A) (A) (A) (A) (A) (A) (A) (A) (A) (A)
                 (A) (A) (A) (A) (A) (A) (A) (A) (A) (A) (A) (A)
                 (A) (A) (A) (A) (A) (A) (A) (A) (A) (A) (A) (A)
                 (A) (A) (A) (A) (A) (A) (A) (A) (A) (A) (A) (A)
                 (A) (A) (A) (A) (A) (A) (A) (A) (A) (A) (A)
 The electronic state of the initial guess is 1-A.
 Requested convergence on RMS density matrix=1.00D-08 within 128 cycles.
 Requested convergence on MAX density matrix=1.00D-06.
 Requested convergence on             energy=1.00D-06.
 No special actions if energy rises.
 Keep R1 integrals in memory in canonical form, NReq=     5139848.
 SCF Done:  E(RHF) =  -154.090466839     A.U. after   11 cycles
             Convg  =    0.7689D-08             -V/T =  2.0017
             S**2   =   0.0000
 ExpMin= 1.22D-01 ExpMax= 1.17D+04 ExpMxC= 4.01D+02 IAcc=1 IRadAn=         1 AccDes= 1.00D-06
 HarFok:  IExCor= 205 AccDes= 1.00D-06 IRadAn=         1 IDoV=1
 ScaDFX=  1.000000  1.000000  1.000000  1.000000
 Range of M.O.s used for correlation:     4    72
 NBasis=    72 NAE=    13 NBE=    13 NFC=     3 NFV=     0
 NROrb=     69 NOA=    10 NOB=    10 NVA=    59 NVB=    59
 Fully direct method using O(ONN) memory.
 JobTyp=1 Pass  1:  I=   4 to  13 NPSUse=  1 ParTrn=F ParDer=F DoDerP=T.
 Spin components of T(2) and E(2):
     alpha-alpha T2 =       0.1731656908D-01 E2=     -0.5650146382D-01
     alpha-beta  T2 =       0.1116444094D+00 E2=     -0.3681686140D+00
     beta-beta   T2 =       0.1731656908D-01 E2=     -0.5650146382D-01
 ANorm=    0.1070643520D+01
 E2 =    -0.4811715417D+00 EUMP2 =    -0.15457163838104D+03
 DoAtom=TTTTTTTTT
          Differentiating once with respect to electric field.
                with respect to dipole field.
          Differentiating once with respect to nuclear coordinates.
          Store integrals in memory, NReq=     4883431.
          There are   1 degrees of freedom in the 1st order CPHF.
     1 vectors were produced by pass  0.
 AX will form   1 AO Fock derivatives at one time.
     1 vectors were produced by pass  1.
     1 vectors were produced by pass  2.
     1 vectors were produced by pass  3.
     1 vectors were produced by pass  4.
     1 vectors were produced by pass  5.
     1 vectors were produced by pass  6.
     1 vectors were produced by pass  7.
     1 vectors were produced by pass  8.
     1 vectors were produced by pass  9.
     1 vectors were produced by pass 10.
     1 vectors were produced by pass 11.
 Inv2:  IOpt= 1 Iter= 1 AM= 3.11D-16 Conv= 1.00D-12.
 Inverted reduced A of dimension   12 with in-core refinement.
 End of Minotr Frequency-dependent properties file   721 does not exist.

 **********************************************************************

            Population analysis using the SCF density.

 **********************************************************************

 Orbital symmetries:
       Occupied  (A) (A) (A) (A) (A) (A) (A) (A) (A) (A) (A) (A)
                 (A)
       Virtual   (A) (A) (A) (A) (A) (A) (A) (A) (A) (A) (A) (A)
                 (A) (A) (A) (A) (A) (A) (A) (A) (A) (A) (A) (A)
                 (A) (A) (A) (A) (A) (A) (A) (A) (A) (A) (A) (A)
                 (A) (A) (A) (A) (A) (A) (A) (A) (A) (A) (A) (A)
                 (A) (A) (A) (A) (A) (A) (A) (A) (A) (A) (A)
 The electronic state is 1-A.
 Alpha  occ. eigenvalues --  -20.54667 -11.28226 -11.22670  -1.35592  -1.00210
 Alpha  occ. eigenvalues --   -0.82856  -0.69410  -0.63463  -0.56551  -0.53008
 Alpha  occ. eigenvalues --   -0.51663  -0.47927  -0.43287
 Alpha virt. eigenvalues --    0.18060   0.21391   0.24276   0.25101   0.26644
 Alpha virt. eigenvalues --    0.29047   0.38245   0.39508   0.59934   0.62010
 Alpha virt. eigenvalues --    0.66287   0.75106   0.75920   0.80718   0.85290
 Alpha virt. eigenvalues --    0.86312   0.88297   0.88935   0.90035   0.92729
 Alpha virt. eigenvalues --    1.12965   1.14711   1.16976   1.26184   1.33163
 Alpha virt. eigenvalues --    1.42470   1.45572   1.50911   1.53061   1.62541
 Alpha virt. eigenvalues --    1.68216   1.77030   1.85680   1.87406   1.88576
 Alpha virt. eigenvalues --    1.90546   1.91331   1.95208   1.96209   1.98934
 Alpha virt. eigenvalues --    2.08124   2.17836   2.22733   2.27301   2.31193
 Alpha virt. eigenvalues --    2.47931   2.49226   2.50640   2.55296   2.70729
 Alpha virt. eigenvalues --    2.73389   2.78922   2.85087   2.88684   3.33132
 Alpha virt. eigenvalues --    3.41064   3.46831   3.61687   4.13362
          Condensed to atoms (all electrons):
              1          2          3          4          5          6
     1  C    4.572855   0.399828   0.403631   0.395009   0.425854  -0.032598
     2  H    0.399828   0.629763  -0.027278  -0.022448  -0.027165  -0.008343
     3  H    0.403631  -0.027278   0.625750  -0.023324  -0.026980   0.007752
     4  H    0.395009  -0.022448  -0.023324   0.646884  -0.025907  -0.001861
     5  C    0.425854  -0.027165  -0.026980  -0.025907   4.415841   0.405900
     6  H   -0.032598  -0.008343   0.007752  -0.001861   0.405900   0.697508
     7  H   -0.038891   0.007741  -0.008386  -0.000491   0.406193  -0.044340
     8  O   -0.046408   0.003756   0.001655   0.002645   0.314921  -0.030424
     9  H    0.006293  -0.000010  -0.000312  -0.000398  -0.034240  -0.009496
              7          8          9
     1  C   -0.038891  -0.046408   0.006293
     2  H    0.007741   0.003756  -0.000010
     3  H   -0.008386   0.001655  -0.000312
     4  H   -0.000491   0.002645  -0.000398
     5  C    0.406193   0.314921  -0.034240
     6  H   -0.044340  -0.030424  -0.009496
     7  H    0.691870  -0.033327   0.000041
     8  O   -0.033327   7.797304   0.361656
     9  H    0.000041   0.361656   0.521726
 Mulliken atomic charges:
              1
     1  C   -0.085574
     2  H    0.044156
     3  H    0.047493
     4  H    0.029891
     5  C    0.145583
     6  H    0.015901
     7  H    0.019589
     8  O   -0.371778
     9  H    0.154739
 Sum of Mulliken charges=   0.00000
 Atomic charges with hydrogens summed into heavy atoms:
              1
     1  C    0.035966
     2  H    0.000000
     3  H    0.000000
     4  H    0.000000
     5  C    0.181073
     6  H    0.000000
     7  H    0.000000
     8  O   -0.217039
     9  H    0.000000
 Sum of Mulliken charges=   0.00000
 Electronic spatial extent (au):  <R**2>=   196.4040
 Charge=     0.0000 electrons
 Dipole moment (field-independent basis, Debye):
    X=    -0.1440    Y=     1.5910    Z=     0.5146  Tot=     1.6784
 Quadrupole moment (field-independent basis, Debye-Ang):
   XX=   -17.3555   YY=   -20.6462   ZZ=   -19.8774
   XY=    -1.8976   XZ=    -1.1766   YZ=     0.0443
 Traceless Quadrupole moment (field-independent basis, Debye-Ang):
   XX=     1.9375   YY=    -1.3531   ZZ=    -0.5844
   XY=    -1.8976   XZ=    -1.1766   YZ=     0.0443
 Octapole moment (field-independent basis, Debye-Ang**2):
  XXX=   -15.8697  YYY=    -0.8323  ZZZ=     0.1698  XYY=    -0.9871
  XXY=     2.4196  XXZ=     2.3411  XZZ=    -2.0294  YZZ=    -0.4243
  YYZ=     0.0291  XYZ=     0.0137
 Hexadecapole moment (field-independent basis, Debye-Ang**3):
 XXXX=  -137.4500 YYYY=   -57.1629 ZZZZ=   -33.2864 XXXY=     0.3403
 XXXZ=    -5.0475 YYYX=     1.2177 YYYZ=     0.1725 ZZZX=    -0.6869
 ZZZY=    -0.0023 XXYY=   -36.3865 XXZZ=   -32.5922 YYZZ=   -13.7608
 XXYZ=     0.1809 YYXZ=    -0.2100 ZZXY=    -0.7276
 N-N= 8.127345629472D+01 E-N=-5.243665623533D+02  KE= 1.538292965783D+02
 ***** Axes restored to original set *****
 -------------------------------------------------------------------
 Center     Atomic                   Forces (Hartrees/Bohr)
 Number     Number              X              Y              Z
 -------------------------------------------------------------------
    1          6           0.001649771    0.003097869    0.003143659
    2          1          -0.000353940    0.000764199   -0.007549333
    3          1          -0.004937969   -0.005416092   -0.000634820
    4          1           0.004380450   -0.004745695   -0.002175004
    5          6          -0.004507774   -0.000794302   -0.001313633
    6          1           0.000850223    0.004875697   -0.000181494
    7          1          -0.003400466    0.001332946    0.003624001
    8          8           0.012209842    0.014659948    0.015148892
    9          1          -0.005890138   -0.013774570   -0.010062268
 -------------------------------------------------------------------
 Cartesian Forces:  Max     0.015148892 RMS     0.006592103

 GradGradGradGradGradGradGradGradGradGradGradGradGradGradGradGradGradGrad
 Berny optimization.
 Internal  Forces:  Max     0.017836991 RMS     0.004811941
 Search for a local minimum.
 Step number   1 out of a maximum of  43
 All quantities printed in internal units (Hartrees-Bohrs-Radians)
 Second derivative matrix not updated -- first step.
     Eigenvalues ---    0.00362   0.04310   0.05460   0.05476   0.05824
     Eigenvalues ---    0.11335   0.11911   0.16000   0.16000   0.16000
     Eigenvalues ---    0.16000   0.21996   0.29376   0.32212   0.32294
     Eigenvalues ---    0.32306   0.32312   0.32323   0.42948   0.58140
     Eigenvalues --- 1000.000001000.000001000.000001000.000001000.00000
     Eigenvalues --- 1000.000001000.000001000.000001000.000001000.00000
     Eigenvalues --- 1000.000001000.000001000.00000
 RFO step:  Lambda=-2.52556460D-03.
 Linear search not attempted -- first point.
 Iteration  1 RMS(Cart)=  0.02970718 RMS(Int)=  0.00039316
 Iteration  2 RMS(Cart)=  0.00034423 RMS(Int)=  0.00026744
 Iteration  3 RMS(Cart)=  0.00000011 RMS(Int)=  0.00026744
 Iteration  1 RMS(Cart)=  0.00000432 RMS(Int)=  0.00000373
 Iteration  2 RMS(Cart)=  0.00000209 RMS(Int)=  0.00000417
 Iteration  3 RMS(Cart)=  0.00000101 RMS(Int)=  0.00000464
 Iteration  4 RMS(Cart)=  0.00000049 RMS(Int)=  0.00000492
 Variable       Old X    -DE/DX   Delta X   Delta X   Delta X     New X
                                 (Linear)    (Quad)   (Total)
    R1        2.10288  -0.00712   0.00000  -0.02188  -0.02188   2.08100
    R2        2.10309  -0.00702   0.00000  -0.02157  -0.02157   2.08153
    R3        2.10256  -0.00642   0.00000  -0.01970  -0.01970   2.08286
    R4        2.89224  -0.00948   0.00000  -0.03199  -0.03199   2.86026
    R5        2.10457  -0.00344   0.00000  -0.01060  -0.01060   2.09397
    R6        2.10277  -0.00231   0.00000  -0.00709  -0.00709   2.09568
    R7        2.67734   0.00461   0.00000   0.01066   0.01066   2.68800
    R8        1.79144   0.01784   0.00000   0.03055   0.03055   1.82198
    A1        1.87709   0.00227   0.00000   0.01114   0.01097   1.88806
    A2        1.87883   0.00278   0.00000   0.01886   0.01880   1.89763
    A3        1.94304  -0.00279   0.00000  -0.01771  -0.01783   1.92521
    A4        1.87764   0.00232   0.00000   0.01535   0.01530   1.89293
    A5        1.94117  -0.00210   0.00000  -0.01387  -0.01399   1.92718
    A6        1.94291  -0.00204   0.00000  -0.01103  -0.01109   1.93182
    A7        1.91838  -0.00011   0.00000  -0.01615  -0.01611   1.90227
    A8        1.92763  -0.00151   0.00000  -0.01696  -0.01682   1.91080
    A9        1.90658  -0.00717   0.00000  -0.02910  -0.02896   1.87762
   A10        1.88332  -0.00084   0.00000  -0.01084  -0.01176   1.87156
   A11        1.92004   0.00447   0.00000   0.03204   0.03162   1.95165
   A12        1.90782   0.00534   0.00000   0.04205   0.04172   1.94954
   A13        1.88815  -0.00437   0.00000  -0.02688  -0.02688   1.86128
    D1        1.06012   0.00113   0.00000   0.00563   0.00558   1.06570
    D2        3.13620  -0.00091   0.00000  -0.02838  -0.02837   3.10783
    D3       -1.04810   0.00020   0.00000  -0.00547  -0.00552  -1.05361
    D4       -3.13000   0.00072   0.00000  -0.00152  -0.00151  -3.13151
    D5       -1.05392  -0.00132   0.00000  -0.03552  -0.03545  -1.08938
    D6        1.04497  -0.00021   0.00000  -0.01262  -0.01260   1.03237
    D7       -1.03633   0.00087   0.00000   0.00116   0.00113  -1.03520
    D8        1.03975  -0.00116   0.00000  -0.03285  -0.03281   1.00693
    D9        3.13864  -0.00005   0.00000  -0.00994  -0.00996   3.12868
   D10        2.79253   0.00108   0.00000   0.00000   0.00000   2.79253
   D11        0.68532   0.00295   0.00000   0.01833   0.01905   0.70437
   D12       -1.37966  -0.00190   0.00000  -0.01283  -0.01360  -1.39326
         Item               Value     Threshold  Converged?
 Maximum Force            0.017837     0.000450     NO 
 RMS     Force            0.004879     0.000300     NO 
 Maximum Displacement     0.062146     0.001800     NO 
 RMS     Displacement     0.029653     0.001200     NO 
 Predicted change in Energy=-1.283362D-03
 GradGradGradGradGradGradGradGradGradGradGradGradGradGradGradGradGradGrad

                          Input orientation:                          
 ---------------------------------------------------------------------
 Center     Atomic     Atomic              Coordinates (Angstroms)
 Number     Number      Type              X           Y           Z
 ---------------------------------------------------------------------
    1          6             0       -1.744783    1.096805    1.216683
    2          1             0       -1.652472    0.595478    2.192812
    3          1             0       -0.846892    1.715811    1.062022
    4          1             0       -2.625366    1.759248    1.240979
    5          6             0       -1.876839    0.072283    0.110407
    6          1             0       -2.791277   -0.529199    0.283217
    7          1             0       -2.003868    0.591481   -0.861269
    8          8             0       -0.703813   -0.732095    0.127515
    9          1             0       -0.922017   -1.548499   -0.336660
 ---------------------------------------------------------------------
                    Distance matrix (angstroms):
                    1          2          3          4          5
     1  C    0.000000
     2  H    1.101216   0.000000
     3  H    1.101497   1.784037   0.000000
     4  H    1.102202   1.790773   1.787982   0.000000
     5  C    1.513582   2.158816   2.160450   2.164333   0.000000
     6  H    2.147184   2.491652   3.070381   2.486328   1.108081
     7  H    2.154149   3.074232   2.510330   2.483825   1.108989
     8  O    2.369552   2.632082   2.624122   3.337507   1.422429
     9  H    3.176075   3.395355   3.552137   4.041230   1.933517
                    6          7          8          9
     6  H    0.000000
     7  H    1.784877   0.000000
     8  O    2.103073   2.102305   0.000000
     9  H    2.217511   2.454615   0.964152   0.000000
 Stoichiometry    C2H6O
 Framework group  C1[X(C2H6O)]
 Deg. of freedom    21
 Full point group                 C1
 Largest Abelian subgroup         C1      NOp   1
 Largest concise Abelian subgroup C1      NOp   1
                         Standard orientation:                         
 ---------------------------------------------------------------------
 Center     Atomic     Atomic              Coordinates (Angstroms)
 Number     Number      Type              X           Y           Z
 ---------------------------------------------------------------------
    1          6             0        1.212611   -0.226170    0.015703
    2          1             0        1.258868   -0.856531    0.917471
    3          1             0        1.290676   -0.881619   -0.866107
    4          1             0        2.075720    0.459311    0.018481
    5          6             0       -0.086430    0.549960   -0.016575
    6          1             0       -0.135637    1.207875    0.873689
    7          1             0       -0.103459    1.205517   -0.910897
    8          8             0       -1.150433   -0.393876   -0.035982
    9          1             0       -1.939788    0.073711    0.260446
 ---------------------------------------------------------------------
 Rotational constants (GHZ):     34.6101548      9.4309436      8.2055304
 Standard basis: CC-pVDZ (5D, 7F)
 There are    72 symmetry adapted basis functions of A   symmetry.
 Integral buffers will be    131072 words long.
 Raffenetti 1 integral format.
 Two-electron integral symmetry is turned on.
    72 basis functions,   141 primitive gaussians,    75 cartesian basis functions
    13 alpha electrons       13 beta electrons
       nuclear repulsion energy        81.7152419059 Hartrees.
 NAtoms=    9 NActive=    9 NUniq=    9 SFac= 7.50D-01 NAtFMM=   80 NAOKFM=F Big=F
 One-electron integrals computed using PRISM.
 NBasis=    72 RedAO= T  NBF=    72
 NBsUse=    72 1.00D-06 NBFU=    72
 Initial guess read from the read-write file:
 Initial guess orbital symmetries:
       Occupied  (A) (A) (A) (A) (A) (A) (A) (A) (A) (A) (A) (A)
                 (A)
       Virtual   (A) (A) (A) (A) (A) (A) (A) (A) (A) (A) (A) (A)
                 (A) (A) (A) (A) (A) (A) (A) (A) (A) (A) (A) (A)
                 (A) (A) (A) (A) (A) (A) (A) (A) (A) (A) (A) (A)
                 (A) (A) (A) (A) (A) (A) (A) (A) (A) (A) (A) (A)
                 (A) (A) (A) (A) (A) (A) (A) (A) (A) (A) (A)
 Harris functional with IExCor=  205 diagonalized for initial guess.
 ExpMin= 1.22D-01 ExpMax= 1.17D+04 ExpMxC= 4.01D+02 IAcc=1 IRadAn=         1 AccDes= 1.00D-06
 HarFok:  IExCor= 205 AccDes= 1.00D-06 IRadAn=         1 IDoV=1
 ScaDFX=  1.000000  1.000000  1.000000  1.000000
 Requested convergence on RMS density matrix=1.00D-08 within 128 cycles.
 Requested convergence on MAX density matrix=1.00D-06.
 Requested convergence on             energy=1.00D-06.
 No special actions if energy rises.
 Keep R1 integrals in memory in canonical form, NReq=     5139848.
 SCF Done:  E(RHF) =  -154.090833052     A.U. after   10 cycles
             Convg  =    0.6211D-08             -V/T =  2.0014
             S**2   =   0.0000
 ExpMin= 1.22D-01 ExpMax= 1.17D+04 ExpMxC= 4.01D+02 IAcc=1 IRadAn=         1 AccDes= 1.00D-06
 HarFok:  IExCor= 205 AccDes= 1.00D-06 IRadAn=         1 IDoV=1
 ScaDFX=  1.000000  1.000000  1.000000  1.000000
 Range of M.O.s used for correlation:     4    72
 NBasis=    72 NAE=    13 NBE=    13 NFC=     3 NFV=     0
 NROrb=     69 NOA=    10 NOB=    10 NVA=    59 NVB=    59
 Fully direct method using O(ONN) memory.
 JobTyp=1 Pass  1:  I=   4 to  13 NPSUse=  1 ParTrn=F ParDer=F DoDerP=T.
 Spin components of T(2) and E(2):
     alpha-alpha T2 =       0.1737348862D-01 E2=     -0.5670517359D-01
     alpha-beta  T2 =       0.1115196580D+00 E2=     -0.3684956912D+00
     beta-beta   T2 =       0.1737348862D-01 E2=     -0.5670517359D-01
 ANorm=    0.1070638424D+01
 E2 =    -0.4819060384D+00 EUMP2 =    -0.15457273909010D+03
 DoAtom=TTTTTTTTT
          Differentiating once with respect to electric field.
                with respect to dipole field.
          Differentiating once with respect to nuclear coordinates.
          Store integrals in memory, NReq=     4883431.
          There are   1 degrees of freedom in the 1st order CPHF.
     1 vectors were produced by pass  0.
 AX will form   1 AO Fock derivatives at one time.
     1 vectors were produced by pass  1.
     1 vectors were produced by pass  2.
     1 vectors were produced by pass  3.
     1 vectors were produced by pass  4.
     1 vectors were produced by pass  5.
     1 vectors were produced by pass  6.
     1 vectors were produced by pass  7.
     1 vectors were produced by pass  8.
     1 vectors were produced by pass  9.
     1 vectors were produced by pass 10.
     1 vectors were produced by pass 11.
 Inv2:  IOpt= 1 Iter= 1 AM= 4.37D-16 Conv= 1.00D-12.
 Inverted reduced A of dimension   12 with in-core refinement.
 End of Minotr Frequency-dependent properties file   721 does not exist.
 ***** Axes restored to original set *****
 -------------------------------------------------------------------
 Center     Atomic                   Forces (Hartrees/Bohr)
 Number     Number              X              Y              Z
 -------------------------------------------------------------------
    1          6           0.000114446    0.003400059    0.002394202
    2          1           0.000116202   -0.000321973    0.000069409
    3          1           0.000381733   -0.000106830   -0.000185678
    4          1          -0.000113480    0.000381450    0.000028637
    5          6          -0.001241652   -0.000161949    0.000356895
    6          1           0.000415979   -0.001140301   -0.000626483
    7          1           0.000472957   -0.001185583   -0.000942265
    8          8          -0.000650094   -0.000152104    0.000976545
    9          1           0.000503908   -0.000712769   -0.002071261
 -------------------------------------------------------------------
 Cartesian Forces:  Max     0.003400059 RMS     0.001059494

 GradGradGradGradGradGradGradGradGradGradGradGradGradGradGradGradGradGrad
 Berny optimization.
 Internal  Forces:  Max     0.003998796 RMS     0.001007011
 Search for a local minimum.
 Step number   2 out of a maximum of  43
 All quantities printed in internal units (Hartrees-Bohrs-Radians)
 Update second derivatives using D2CorX and points  1  2
 Trust test= 8.58D-01 RLast= 1.18D-01 DXMaxT set to 3.54D-01
     Eigenvalues ---    0.00362   0.04439   0.05588   0.05626   0.06102
     Eigenvalues ---    0.11684   0.12015   0.15652   0.16000   0.16000
     Eigenvalues ---    0.16224   0.22402   0.30631   0.32219   0.32299
     Eigenvalues ---    0.32305   0.32317   0.34113   0.42713   0.55046
     Eigenvalues --- 1000.000001000.000001000.000001000.000001000.00000
     Eigenvalues --- 1000.000001000.000001000.000001000.000001000.00000
     Eigenvalues --- 1000.000001000.000001000.00000
 RFO step:  Lambda=-9.24956535D-05.
 Quartic linear search produced a step of -0.11354.
 Iteration  1 RMS(Cart)=  0.00879314 RMS(Int)=  0.00004095
 Iteration  2 RMS(Cart)=  0.00004032 RMS(Int)=  0.00001131
 Iteration  3 RMS(Cart)=  0.00000000 RMS(Int)=  0.00001131
 Iteration  1 RMS(Cart)=  0.00000009 RMS(Int)=  0.00000008
 Variable       Old X    -DE/DX   Delta X   Delta X   Delta X     New X
                                 (Linear)    (Quad)   (Total)
    R1        2.08100   0.00022   0.00248  -0.00271  -0.00022   2.08078
    R2        2.08153   0.00028   0.00245  -0.00249  -0.00005   2.08148
    R3        2.08286   0.00032   0.00224  -0.00210   0.00014   2.08300
    R4        2.86026   0.00400   0.00363   0.00722   0.01086   2.87111
    R5        2.09397   0.00018   0.00120  -0.00111   0.00009   2.09406
    R6        2.09568   0.00022   0.00080  -0.00048   0.00033   2.09601
    R7        2.68800   0.00036  -0.00121   0.00234   0.00113   2.68913
    R8        1.82198   0.00149  -0.00347   0.00686   0.00340   1.82538
    A1        1.88806   0.00021  -0.00125   0.00116  -0.00007   1.88798
    A2        1.89763   0.00011  -0.00213   0.00472   0.00260   1.90023
    A3        1.92521  -0.00035   0.00202  -0.00484  -0.00281   1.92240
    A4        1.89293   0.00006  -0.00174   0.00301   0.00128   1.89421
    A5        1.92718  -0.00046   0.00159  -0.00535  -0.00376   1.92342
    A6        1.93182   0.00044   0.00126   0.00156   0.00283   1.93465
    A7        1.90227   0.00140   0.00183   0.00535   0.00716   1.90943
    A8        1.91080   0.00046   0.00191   0.00739   0.00927   1.92008
    A9        1.87762   0.00119   0.00329   0.00038   0.00366   1.88128
   A10        1.87156  -0.00035   0.00134  -0.00371  -0.00236   1.86920
   A11        1.95165  -0.00121  -0.00359  -0.00444  -0.00801   1.94364
   A12        1.94954  -0.00140  -0.00474  -0.00441  -0.00914   1.94040
   A13        1.86128   0.00070   0.00305  -0.00021   0.00284   1.86412
    D1        1.06570  -0.00009  -0.00063  -0.01359  -0.01423   1.05147
    D2        3.10783   0.00055   0.00322  -0.01080  -0.00757   3.10026
    D3       -1.05361  -0.00016   0.00063  -0.01156  -0.01094  -1.06455
    D4       -3.13151  -0.00034   0.00017  -0.01863  -0.01847   3.13321
    D5       -1.08938   0.00029   0.00403  -0.01584  -0.01181  -1.10119
    D6        1.03237  -0.00041   0.00143  -0.01661  -0.01517   1.01719
    D7       -1.03520  -0.00029  -0.00013  -0.01735  -0.01748  -1.05268
    D8        1.00693   0.00035   0.00373  -0.01456  -0.01083   0.99611
    D9        3.12868  -0.00036   0.00113  -0.01532  -0.01419   3.11449
   D10        2.79253   0.00138   0.00000   0.00000   0.00000   2.79253
   D11        0.70437  -0.00039  -0.00216  -0.00419  -0.00638   0.69799
   D12       -1.39326   0.00187   0.00154   0.00670   0.00828  -1.38498
         Item               Value     Threshold  Converged?
 Maximum Force            0.003999     0.000450     NO 
 RMS     Force            0.000964     0.000300     NO 
 Maximum Displacement     0.023345     0.001800     NO 
 RMS     Displacement     0.008793     0.001200     NO 
 Predicted change in Energy=-6.478257D-05
 GradGradGradGradGradGradGradGradGradGradGradGradGradGradGradGradGradGrad

                          Input orientation:                          
 ---------------------------------------------------------------------
 Center     Atomic     Atomic              Coordinates (Angstroms)
 Number     Number      Type              X           Y           Z
 ---------------------------------------------------------------------
    1          6             0       -1.746352    1.102001    1.221271
    2          1             0       -1.660194    0.598983    2.196960
    3          1             0       -0.842231    1.712268    1.068359
    4          1             0       -2.621706    1.771602    1.241355
    5          6             0       -1.878415    0.072569    0.111683
    6          1             0       -2.786470   -0.538994    0.283086
    7          1             0       -2.007839    0.581819   -0.865125
    8          8             0       -0.703429   -0.730127    0.121233
    9          1             0       -0.920690   -1.548807   -0.343114
 ---------------------------------------------------------------------
                    Distance matrix (angstroms):
                    1          2          3          4          5
     1  C    0.000000
     2  H    1.101100   0.000000
     3  H    1.101473   1.783874   0.000000
     4  H    1.102277   1.792406   1.788849   0.000000
     5  C    1.519327   2.161738   2.162757   2.171486   0.000000
     6  H    2.157522   2.495276   3.076507   2.506847   1.108130
     7  H    2.166105   3.081805   2.524859   2.495932   1.109162
     8  O    2.377912   2.643970   2.623281   3.345610   1.423027
     9  H    3.186816   3.407616   3.554295   4.053284   1.937250
                    6          7          8          9
     6  H    0.000000
     7  H    1.783502   0.000000
     8  O    2.098044   2.096566   0.000000
     9  H    2.212009   2.448255   0.965948   0.000000
 Stoichiometry    C2H6O
 Framework group  C1[X(C2H6O)]
 Deg. of freedom    21
 Full point group                 C1
 Largest Abelian subgroup         C1      NOp   1
 Largest concise Abelian subgroup C1      NOp   1
                         Standard orientation:                         
 ---------------------------------------------------------------------
 Center     Atomic     Atomic              Coordinates (Angstroms)
 Number     Number      Type              X           Y           Z
 ---------------------------------------------------------------------
    1          6             0        1.219209   -0.224006    0.015679
    2          1             0        1.270391   -0.844799    0.923653
    3          1             0        1.289338   -0.889032   -0.859572
    4          1             0        2.081519    0.462506    0.004010
    5          6             0       -0.088131    0.549420   -0.016391
    6          1             0       -0.148735    1.207021    0.873462
    7          1             0       -0.118896    1.206027   -0.909790
    8          8             0       -1.151945   -0.395525   -0.036045
    9          1             0       -1.944530    0.069994    0.260868
 ---------------------------------------------------------------------
 Rotational constants (GHZ):     34.6270660      9.3735155      8.1623189
 Standard basis: CC-pVDZ (5D, 7F)
 There are    72 symmetry adapted basis functions of A   symmetry.
 Integral buffers will be    131072 words long.
 Raffenetti 1 integral format.
 Two-electron integral symmetry is turned on.
    72 basis functions,   141 primitive gaussians,    75 cartesian basis functions
    13 alpha electrons       13 beta electrons
       nuclear repulsion energy        81.5791965567 Hartrees.
 NAtoms=    9 NActive=    9 NUniq=    9 SFac= 7.50D-01 NAtFMM=   80 NAOKFM=F Big=F
 One-electron integrals computed using PRISM.
 NBasis=    72 RedAO= T  NBF=    72
 NBsUse=    72 1.00D-06 NBFU=    72
 Initial guess read from the read-write file:
 Initial guess orbital symmetries:
       Occupied  (A) (A) (A) (A) (A) (A) (A) (A) (A) (A) (A) (A)
                 (A)
       Virtual   (A) (A) (A) (A) (A) (A) (A) (A) (A) (A) (A) (A)
                 (A) (A) (A) (A) (A) (A) (A) (A) (A) (A) (A) (A)
                 (A) (A) (A) (A) (A) (A) (A) (A) (A) (A) (A) (A)
                 (A) (A) (A) (A) (A) (A) (A) (A) (A) (A) (A) (A)
                 (A) (A) (A) (A) (A) (A) (A) (A) (A) (A) (A)
 Harris functional with IExCor=  205 diagonalized for initial guess.
 ExpMin= 1.22D-01 ExpMax= 1.17D+04 ExpMxC= 4.01D+02 IAcc=1 IRadAn=         1 AccDes= 1.00D-06
 HarFok:  IExCor= 205 AccDes= 1.00D-06 IRadAn=         1 IDoV=1
 ScaDFX=  1.000000  1.000000  1.000000  1.000000
 Requested convergence on RMS density matrix=1.00D-08 within 128 cycles.
 Requested convergence on MAX density matrix=1.00D-06.
 Requested convergence on             energy=1.00D-06.
 No special actions if energy rises.
 Keep R1 integrals in memory in canonical form, NReq=     5139848.
 SCF Done:  E(RHF) =  -154.090887012     A.U. after    9 cycles
             Convg  =    0.4370D-08             -V/T =  2.0015
             S**2   =   0.0000
 ExpMin= 1.22D-01 ExpMax= 1.17D+04 ExpMxC= 4.01D+02 IAcc=1 IRadAn=         1 AccDes= 1.00D-06
 HarFok:  IExCor= 205 AccDes= 1.00D-06 IRadAn=         1 IDoV=1
 ScaDFX=  1.000000  1.000000  1.000000  1.000000
 Range of M.O.s used for correlation:     4    72
 NBasis=    72 NAE=    13 NBE=    13 NFC=     3 NFV=     0
 NROrb=     69 NOA=    10 NOB=    10 NVA=    59 NVB=    59
 Fully direct method using O(ONN) memory.
 JobTyp=1 Pass  1:  I=   4 to  13 NPSUse=  1 ParTrn=F ParDer=F DoDerP=T.
 Spin components of T(2) and E(2):
     alpha-alpha T2 =       0.1737760772D-01 E2=     -0.5668031405D-01
     alpha-beta  T2 =       0.1116262060D+00 E2=     -0.3685556652D+00
     beta-beta   T2 =       0.1737760772D-01 E2=     -0.5668031405D-01
 ANorm=    0.1070692029D+01
 E2 =    -0.4819162933D+00 EUMP2 =    -0.15457280330487D+03
 DoAtom=TTTTTTTTT
          Differentiating once with respect to electric field.
                with respect to dipole field.
          Differentiating once with respect to nuclear coordinates.
          Store integrals in memory, NReq=     4883431.
          There are   1 degrees of freedom in the 1st order CPHF.
     1 vectors were produced by pass  0.
 AX will form   1 AO Fock derivatives at one time.
     1 vectors were produced by pass  1.
     1 vectors were produced by pass  2.
     1 vectors were produced by pass  3.
     1 vectors were produced by pass  4.
     1 vectors were produced by pass  5.
     1 vectors were produced by pass  6.
     1 vectors were produced by pass  7.
     1 vectors were produced by pass  8.
     1 vectors were produced by pass  9.
     1 vectors were produced by pass 10.
     1 vectors were produced by pass 11.
 Inv2:  IOpt= 1 Iter= 1 AM= 4.74D-16 Conv= 1.00D-12.
 Inverted reduced A of dimension   12 with in-core refinement.
 End of Minotr Frequency-dependent properties file   721 does not exist.
 ***** Axes restored to original set *****
 -------------------------------------------------------------------
 Center     Atomic                   Forces (Hartrees/Bohr)
 Number     Number              X              Y              Z
 -------------------------------------------------------------------
    1          6           0.000270932    0.000649138   -0.000479283
    2          1           0.000041176   -0.000236188    0.000150266
    3          1           0.000295274   -0.000002713   -0.000223356
    4          1          -0.000104246    0.000031582   -0.000086894
    5          6          -0.000955871   -0.000371503    0.000421949
    6          1          -0.000085427   -0.000126704    0.000072722
    7          1           0.000072643    0.000021404   -0.000075518
    8          8          -0.000025484   -0.001070041    0.001311157
    9          1           0.000491002    0.001105025   -0.001091044
 -------------------------------------------------------------------
 Cartesian Forces:  Max     0.001311157 RMS     0.000535696

 GradGradGradGradGradGradGradGradGradGradGradGradGradGradGradGradGradGrad
 Berny optimization.
 Internal  Forces:  Max     0.001380758 RMS     0.000380439
 Search for a local minimum.
 Step number   3 out of a maximum of  43
 All quantities printed in internal units (Hartrees-Bohrs-Radians)
 Update second derivatives using D2CorX and points  1  2  3
 Trust test= 9.91D-01 RLast= 4.80D-02 DXMaxT set to 3.54D-01
     Eigenvalues ---    0.00356   0.04411   0.05528   0.05619   0.05953
     Eigenvalues ---    0.11575   0.11746   0.15288   0.16000   0.16005
     Eigenvalues ---    0.16330   0.22652   0.32146   0.32220   0.32300
     Eigenvalues ---    0.32304   0.32333   0.34192   0.42591   0.57542
     Eigenvalues --- 1000.000001000.000001000.000001000.000001000.00000
     Eigenvalues --- 1000.000001000.000001000.000001000.000001000.00000
     Eigenvalues --- 1000.000001000.000001000.00000
 RFO step:  Lambda=-4.55295424D-06.
 Quartic linear search produced a step of -0.00464.
 Iteration  1 RMS(Cart)=  0.00200543 RMS(Int)=  0.00000287
 Iteration  2 RMS(Cart)=  0.00000296 RMS(Int)=  0.00000070
 Iteration  3 RMS(Cart)=  0.00000000 RMS(Int)=  0.00000070
 Iteration  1 RMS(Cart)=  0.00000000 RMS(Int)=  0.00000000
 Variable       Old X    -DE/DX   Delta X   Delta X   Delta X     New X
                                 (Linear)    (Quad)   (Total)
    R1        2.08078   0.00024   0.00000   0.00071   0.00071   2.08149
    R2        2.08148   0.00027   0.00000   0.00080   0.00080   2.08229
    R3        2.08300   0.00010   0.00000   0.00029   0.00029   2.08329
    R4        2.87111  -0.00012  -0.00005   0.00004  -0.00001   2.87110
    R5        2.09406   0.00015   0.00000   0.00046   0.00046   2.09452
    R6        2.09601   0.00007   0.00000   0.00021   0.00021   2.09623
    R7        2.68913   0.00037  -0.00001   0.00092   0.00091   2.69005
    R8        1.82538  -0.00052  -0.00002  -0.00069  -0.00071   1.82467
    A1        1.88798   0.00018   0.00000   0.00072   0.00072   1.88870
    A2        1.90023   0.00013  -0.00001   0.00145   0.00144   1.90166
    A3        1.92240  -0.00013   0.00001  -0.00092  -0.00091   1.92149
    A4        1.89421   0.00018  -0.00001   0.00118   0.00117   1.89539
    A5        1.92342  -0.00033   0.00002  -0.00249  -0.00247   1.92095
    A6        1.93465  -0.00003  -0.00001   0.00015   0.00014   1.93479
    A7        1.90943   0.00070  -0.00003   0.00083   0.00080   1.91023
    A8        1.92008  -0.00048  -0.00004   0.00103   0.00099   1.92107
    A9        1.88128  -0.00040  -0.00002  -0.00201  -0.00202   1.87926
   A10        1.86920   0.00000   0.00001   0.00092   0.00093   1.87013
   A11        1.94364   0.00009   0.00004  -0.00014  -0.00010   1.94355
   A12        1.94040   0.00010   0.00004  -0.00057  -0.00053   1.93986
   A13        1.86412  -0.00014  -0.00001  -0.00079  -0.00080   1.86332
    D1        1.05147   0.00008   0.00007  -0.00278  -0.00272   1.04875
    D2        3.10026   0.00022   0.00004  -0.00056  -0.00053   3.09973
    D3       -1.06455  -0.00020   0.00005  -0.00189  -0.00184  -1.06639
    D4        3.13321   0.00002   0.00009  -0.00403  -0.00394   3.12926
    D5       -1.10119   0.00016   0.00005  -0.00181  -0.00176  -1.10294
    D6        1.01719  -0.00026   0.00007  -0.00314  -0.00307   1.01412
    D7       -1.05268   0.00002   0.00008  -0.00408  -0.00400  -1.05669
    D8        0.99611   0.00015   0.00005  -0.00187  -0.00182   0.99429
    D9        3.11449  -0.00026   0.00007  -0.00320  -0.00313   3.11136
   D10        2.79253   0.00138   0.00000   0.00000   0.00000   2.79253
   D11        0.69799   0.00072   0.00003   0.00033   0.00036   0.69835
   D12       -1.38498   0.00059  -0.00004  -0.00036  -0.00040  -1.38537
         Item               Value     Threshold  Converged?
 Maximum Force            0.000523     0.000450     NO 
 RMS     Force            0.000183     0.000300     YES
 Maximum Displacement     0.005622     0.001800     NO 
 RMS     Displacement     0.002007     0.001200     NO 
 Predicted change in Energy=-2.277966D-06
 GradGradGradGradGradGradGradGradGradGradGradGradGradGradGradGradGradGrad

                          Input orientation:                          
 ---------------------------------------------------------------------
 Center     Atomic     Atomic              Coordinates (Angstroms)
 Number     Number      Type              X           Y           Z
 ---------------------------------------------------------------------
    1          6             0       -1.746756    1.101905    1.221484
    2          1             0       -1.661305    0.597488    2.196939
    3          1             0       -0.840405    1.709293    1.067249
    4          1             0       -2.620885    1.773373    1.240874
    5          6             0       -1.879668    0.072891    0.111617
    6          1             0       -2.786860   -0.540241    0.283539
    7          1             0       -2.009028    0.581590   -0.865614
    8          8             0       -0.702975   -0.728154    0.121782
    9          1             0       -0.919444   -1.546831   -0.342162
 ---------------------------------------------------------------------
                    Distance matrix (angstroms):
                    1          2          3          4          5
     1  C    0.000000
     2  H    1.101476   0.000000
     3  H    1.101899   1.784989   0.000000
     4  H    1.102428   1.793756   1.790073   0.000000
     5  C    1.519322   2.161353   2.161275   2.171695   0.000000
     6  H    2.158286   2.494473   3.076246   2.509352   1.108371
     7  H    2.166909   3.082271   2.524550   2.496399   1.109275
     8  O    2.376539   2.642347   2.618003   3.344904   1.423511
     9  H    3.185159   3.405216   3.548947   4.052735   1.936865
                    6          7          8          9
     6  H    0.000000
     7  H    1.784400   0.000000
     8  O    2.098584   2.096701   0.000000
     9  H    2.211780   2.447728   0.965575   0.000000
 Stoichiometry    C2H6O
 Framework group  C1[X(C2H6O)]
 Deg. of freedom    21
 Full point group                 C1
 Largest Abelian subgroup         C1      NOp   1
 Largest concise Abelian subgroup C1      NOp   1
                         Standard orientation:                         
 ---------------------------------------------------------------------
 Center     Atomic     Atomic              Coordinates (Angstroms)
 Number     Number      Type              X           Y           Z
 ---------------------------------------------------------------------
    1          6             0        1.218682   -0.224383    0.015743
    2          1             0        1.269102   -0.843757    0.925185
    3          1             0        1.284305   -0.891095   -0.859111
    4          1             0        2.081972    0.461080    0.000953
    5          6             0       -0.087815    0.550455   -0.016302
    6          1             0       -0.148956    1.207802    0.874004
    7          1             0       -0.119413    1.206600   -0.910151
    8          8             0       -1.151100   -0.395810   -0.036045
    9          1             0       -1.943413    0.069417    0.260837
 ---------------------------------------------------------------------
 Rotational constants (GHZ):     34.5635965      9.3842330      8.1678647
 Standard basis: CC-pVDZ (5D, 7F)
 There are    72 symmetry adapted basis functions of A   symmetry.
 Integral buffers will be    131072 words long.
 Raffenetti 1 integral format.
 Two-electron integral symmetry is turned on.
    72 basis functions,   141 primitive gaussians,    75 cartesian basis functions
    13 alpha electrons       13 beta electrons
       nuclear repulsion energy        81.5818858091 Hartrees.
 NAtoms=    9 NActive=    9 NUniq=    9 SFac= 7.50D-01 NAtFMM=   80 NAOKFM=F Big=F
 One-electron integrals computed using PRISM.
 NBasis=    72 RedAO= T  NBF=    72
 NBsUse=    72 1.00D-06 NBFU=    72
 Initial guess read from the read-write file:
 Initial guess orbital symmetries:
       Occupied  (A) (A) (A) (A) (A) (A) (A) (A) (A) (A) (A) (A)
                 (A)
       Virtual   (A) (A) (A) (A) (A) (A) (A) (A) (A) (A) (A) (A)
                 (A) (A) (A) (A) (A) (A) (A) (A) (A) (A) (A) (A)
                 (A) (A) (A) (A) (A) (A) (A) (A) (A) (A) (A) (A)
                 (A) (A) (A) (A) (A) (A) (A) (A) (A) (A) (A) (A)
                 (A) (A) (A) (A) (A) (A) (A) (A) (A) (A) (A)
 Requested convergence on RMS density matrix=1.00D-08 within 128 cycles.
 Requested convergence on MAX density matrix=1.00D-06.
 Requested convergence on             energy=1.00D-06.
 No special actions if energy rises.
 Keep R1 integrals in memory in canonical form, NReq=     5139848.
 SCF Done:  E(RHF) =  -154.090861785     A.U. after    8 cycles
             Convg  =    0.4182D-08             -V/T =  2.0015
             S**2   =   0.0000
 ExpMin= 1.22D-01 ExpMax= 1.17D+04 ExpMxC= 4.01D+02 IAcc=1 IRadAn=         1 AccDes= 1.00D-06
 HarFok:  IExCor= 205 AccDes= 1.00D-06 IRadAn=         1 IDoV=1
 ScaDFX=  1.000000  1.000000  1.000000  1.000000
 Range of M.O.s used for correlation:     4    72
 NBasis=    72 NAE=    13 NBE=    13 NFC=     3 NFV=     0
 NROrb=     69 NOA=    10 NOB=    10 NVA=    59 NVB=    59
 Fully direct method using O(ONN) memory.
 JobTyp=1 Pass  1:  I=   4 to  13 NPSUse=  1 ParTrn=F ParDer=F DoDerP=T.
 Spin components of T(2) and E(2):
     alpha-alpha T2 =       0.1738006659D-01 E2=     -0.5668212464D-01
     alpha-beta  T2 =       0.1116493102D+00 E2=     -0.3685799027D+00
     beta-beta   T2 =       0.1738006659D-01 E2=     -0.5668212464D-01
 ANorm=    0.1070705115D+01
 E2 =    -0.4819441519D+00 EUMP2 =    -0.15457280593742D+03
 DoAtom=TTTTTTTTT
          Differentiating once with respect to electric field.
                with respect to dipole field.
          Differentiating once with respect to nuclear coordinates.
          Store integrals in memory, NReq=     4883431.
          There are   1 degrees of freedom in the 1st order CPHF.
     1 vectors were produced by pass  0.
 AX will form   1 AO Fock derivatives at one time.
     1 vectors were produced by pass  1.
     1 vectors were produced by pass  2.
     1 vectors were produced by pass  3.
     1 vectors were produced by pass  4.
     1 vectors were produced by pass  5.
     1 vectors were produced by pass  6.
     1 vectors were produced by pass  7.
     1 vectors were produced by pass  8.
     1 vectors were produced by pass  9.
     1 vectors were produced by pass 10.
     1 vectors were produced by pass 11.
 Inv2:  IOpt= 1 Iter= 1 AM= 5.40D-16 Conv= 1.00D-12.
 Inverted reduced A of dimension   12 with in-core refinement.
 End of Minotr Frequency-dependent properties file   721 does not exist.
 ***** Axes restored to original set *****
 -------------------------------------------------------------------
 Center     Atomic                   Forces (Hartrees/Bohr)
 Number     Number              X              Y              Z
 -------------------------------------------------------------------
    1          6           0.000372424    0.000667809   -0.000586422
    2          1           0.000006034    0.000000603   -0.000052370
    3          1          -0.000001225   -0.000048567   -0.000030844
    4          1           0.000030524   -0.000003569    0.000014520
    5          6          -0.000686690   -0.000575416    0.000520553
    6          1           0.000036102   -0.000003835    0.000003262
    7          1           0.000011346    0.000004550    0.000049532
    8          8          -0.000252832   -0.000766989    0.001363006
    9          1           0.000484316    0.000725413   -0.001281237
 -------------------------------------------------------------------
 Cartesian Forces:  Max     0.001363006 RMS     0.000506465

 GradGradGradGradGradGradGradGradGradGradGradGradGradGradGradGradGradGrad
 Berny optimization.
 Internal  Forces:  Max     0.001401686 RMS     0.000343922
 Search for a local minimum.
 Step number   4 out of a maximum of  43
 All quantities printed in internal units (Hartrees-Bohrs-Radians)
 Update second derivatives using D2CorX and points  1  2  3  4
 Trust test= 1.16D+00 RLast= 9.48D-03 DXMaxT set to 3.54D-01
     Eigenvalues ---    0.00351   0.04423   0.05109   0.05610   0.05924
     Eigenvalues ---    0.11429   0.11992   0.14090   0.15971   0.16017
     Eigenvalues ---    0.16695   0.22410   0.32178   0.32228   0.32255
     Eigenvalues ---    0.32301   0.34064   0.34521   0.40960   0.56185
     Eigenvalues --- 1000.000001000.000001000.000001000.000001000.00000
     Eigenvalues --- 1000.000001000.000001000.000001000.000001000.00000
     Eigenvalues --- 1000.000001000.000001000.00000
 RFO step:  Lambda=-2.78541513D-07.
 Quartic linear search produced a step of  0.18396.
 Iteration  1 RMS(Cart)=  0.00064166 RMS(Int)=  0.00000040
 Iteration  2 RMS(Cart)=  0.00000033 RMS(Int)=  0.00000023
 Iteration  1 RMS(Cart)=  0.00000001 RMS(Int)=  0.00000001
 Variable       Old X    -DE/DX   Delta X   Delta X   Delta X     New X
                                 (Linear)    (Quad)   (Total)
    R1        2.08149  -0.00005   0.00013  -0.00027  -0.00014   2.08135
    R2        2.08229  -0.00002   0.00015  -0.00020  -0.00005   2.08224
    R3        2.08329  -0.00003   0.00005  -0.00014  -0.00009   2.08320
    R4        2.87110  -0.00003   0.00000   0.00001   0.00001   2.87111
    R5        2.09452  -0.00003   0.00008  -0.00016  -0.00008   2.09444
    R6        2.09623  -0.00004   0.00004  -0.00018  -0.00014   2.09608
    R7        2.69005   0.00022   0.00017   0.00051   0.00067   2.69072
    R8        1.82467  -0.00011  -0.00013  -0.00008  -0.00021   1.82446
    A1        1.88870   0.00003   0.00013  -0.00009   0.00004   1.88874
    A2        1.90166   0.00000   0.00026   0.00007   0.00034   1.90200
    A3        1.92149  -0.00003  -0.00017  -0.00018  -0.00035   1.92114
    A4        1.89539   0.00002   0.00022   0.00008   0.00030   1.89569
    A5        1.92095  -0.00008  -0.00045  -0.00044  -0.00089   1.92005
    A6        1.93479   0.00006   0.00003   0.00055   0.00058   1.93536
    A7        1.91023   0.00063   0.00015   0.00017   0.00031   1.91054
    A8        1.92107  -0.00062   0.00018  -0.00020  -0.00002   1.92105
    A9        1.87926  -0.00005  -0.00037  -0.00007  -0.00044   1.87882
   A10        1.87013   0.00001   0.00017   0.00012   0.00029   1.87042
   A11        1.94355  -0.00002  -0.00002  -0.00017  -0.00019   1.94336
   A12        1.93986   0.00005  -0.00010   0.00015   0.00006   1.93992
   A13        1.86332   0.00003  -0.00015   0.00031   0.00017   1.86349
    D1        1.04875   0.00012  -0.00050  -0.00006  -0.00056   1.04819
    D2        3.09973   0.00014  -0.00010   0.00007  -0.00003   3.09970
    D3       -1.06639  -0.00021  -0.00034   0.00009  -0.00025  -1.06664
    D4        3.12926   0.00009  -0.00073  -0.00056  -0.00128   3.12798
    D5       -1.10294   0.00011  -0.00032  -0.00043  -0.00075  -1.10369
    D6        1.01412  -0.00023  -0.00056  -0.00040  -0.00097   1.01316
    D7       -1.05669   0.00010  -0.00074  -0.00039  -0.00112  -1.05781
    D8        0.99429   0.00011  -0.00033  -0.00026  -0.00059   0.99370
    D9        3.11136  -0.00023  -0.00058  -0.00023  -0.00081   3.11055
   D10        2.79253   0.00140   0.00000   0.00000   0.00000   2.79253
   D11        0.69835   0.00066   0.00007  -0.00006   0.00001   0.69836
   D12       -1.38537   0.00063  -0.00007  -0.00020  -0.00027  -1.38564
         Item               Value     Threshold  Converged?
 Maximum Force            0.000215     0.000450     YES
 RMS     Force            0.000051     0.000300     YES
 Maximum Displacement     0.001960     0.001800     NO 
 RMS     Displacement     0.000642     0.001200     YES
 Predicted change in Energy=-2.047688D-07
 GradGradGradGradGradGradGradGradGradGradGradGradGradGradGradGradGradGrad

                          Input orientation:                          
 ---------------------------------------------------------------------
 Center     Atomic     Atomic              Coordinates (Angstroms)
 Number     Number      Type              X           Y           Z
 ---------------------------------------------------------------------
    1          6             0       -1.747041    1.101956    1.221490
    2          1             0       -1.661625    0.597173    2.196675
    3          1             0       -0.840063    1.708256    1.066838
    4          1             0       -2.620550    1.774149    1.241073
    5          6             0       -1.880092    0.073006    0.111577
    6          1             0       -2.786916   -0.540591    0.283527
    7          1             0       -2.009468    0.581744   -0.865546
    8          8             0       -0.702807   -0.727802    0.121927
    9          1             0       -0.918764   -1.546576   -0.341855
 ---------------------------------------------------------------------
                    Distance matrix (angstroms):
                    1          2          3          4          5
     1  C    0.000000
     2  H    1.101402   0.000000
     3  H    1.101873   1.784937   0.000000
     4  H    1.102381   1.793874   1.790205   0.000000
     5  C    1.519325   2.161044   2.160607   2.172079   0.000000
     6  H    2.158489   2.494177   3.075894   2.510497   1.108331
     7  H    2.166843   3.081952   2.524013   2.496617   1.109198
     8  O    2.376442   2.641869   2.616500   3.345143   1.423868
     9  H    3.185093   3.404649   3.547470   4.053264   1.937214
                    6          7          8          9
     6  H    0.000000
     7  H    1.784497   0.000000
     8  O    2.098731   2.096992   0.000000
     9  H    2.212035   2.448190   0.965465   0.000000
 Stoichiometry    C2H6O
 Framework group  C1[X(C2H6O)]
 Deg. of freedom    21
 Full point group                 C1
 Largest Abelian subgroup         C1      NOp   1
 Largest concise Abelian subgroup C1      NOp   1
                         Standard orientation:                         
 ---------------------------------------------------------------------
 Center     Atomic     Atomic              Coordinates (Angstroms)
 Number     Number      Type              X           Y           Z
 ---------------------------------------------------------------------
    1          6             0        1.218626   -0.224518    0.015779
    2          1             0        1.268563   -0.843576    0.925372
    3          1             0        1.282702   -0.891617   -0.858863
    4          1             0        2.082524    0.460087    0.000216
    5          6             0       -0.087597    0.550789   -0.016268
    6          1             0       -0.148977    1.207977    0.874090
    7          1             0       -0.119020    1.206760   -0.910156
    8          8             0       -1.151068   -0.395803   -0.036062
    9          1             0       -1.943422    0.069161    0.260766
 ---------------------------------------------------------------------
 Rotational constants (GHZ):     34.5502001      9.3853407      8.1679695
 Standard basis: CC-pVDZ (5D, 7F)
 There are    72 symmetry adapted basis functions of A   symmetry.
 Integral buffers will be    131072 words long.
 Raffenetti 1 integral format.
 Two-electron integral symmetry is turned on.
    72 basis functions,   141 primitive gaussians,    75 cartesian basis functions
    13 alpha electrons       13 beta electrons
       nuclear repulsion energy        81.5796914328 Hartrees.
 NAtoms=    9 NActive=    9 NUniq=    9 SFac= 7.50D-01 NAtFMM=   80 NAOKFM=F Big=F
 One-electron integrals computed using PRISM.
 NBasis=    72 RedAO= T  NBF=    72
 NBsUse=    72 1.00D-06 NBFU=    72
 Initial guess read from the read-write file:
 Initial guess orbital symmetries:
       Occupied  (A) (A) (A) (A) (A) (A) (A) (A) (A) (A) (A) (A)
                 (A)
       Virtual   (A) (A) (A) (A) (A) (A) (A) (A) (A) (A) (A) (A)
                 (A) (A) (A) (A) (A) (A) (A) (A) (A) (A) (A) (A)
                 (A) (A) (A) (A) (A) (A) (A) (A) (A) (A) (A) (A)
                 (A) (A) (A) (A) (A) (A) (A) (A) (A) (A) (A) (A)
                 (A) (A) (A) (A) (A) (A) (A) (A) (A) (A) (A)
 Requested convergence on RMS density matrix=1.00D-08 within 128 cycles.
 Requested convergence on MAX density matrix=1.00D-06.
 Requested convergence on             energy=1.00D-06.
 No special actions if energy rises.
 Keep R1 integrals in memory in canonical form, NReq=     5139848.
 SCF Done:  E(RHF) =  -154.090860627     A.U. after    7 cycles
             Convg  =    0.4417D-08             -V/T =  2.0015
             S**2   =   0.0000
 ExpMin= 1.22D-01 ExpMax= 1.17D+04 ExpMxC= 4.01D+02 IAcc=1 IRadAn=         1 AccDes= 1.00D-06
 HarFok:  IExCor= 205 AccDes= 1.00D-06 IRadAn=         1 IDoV=1
 ScaDFX=  1.000000  1.000000  1.000000  1.000000
 Range of M.O.s used for correlation:     4    72
 NBasis=    72 NAE=    13 NBE=    13 NFC=     3 NFV=     0
 NROrb=     69 NOA=    10 NOB=    10 NVA=    59 NVB=    59
 Fully direct method using O(ONN) memory.
 JobTyp=1 Pass  1:  I=   4 to  13 NPSUse=  1 ParTrn=F ParDer=F DoDerP=T.
 Spin components of T(2) and E(2):
     alpha-alpha T2 =       0.1738046271D-01 E2=     -0.5668200625D-01
     alpha-beta  T2 =       0.1116512194D+00 E2=     -0.3685814947D+00
     beta-beta   T2 =       0.1738046271D-01 E2=     -0.5668200625D-01
 ANorm=    0.1070706377D+01
 E2 =    -0.4819455072D+00 EUMP2 =    -0.15457280613423D+03
 DoAtom=TTTTTTTTT
          Differentiating once with respect to electric field.
                with respect to dipole field.
          Differentiating once with respect to nuclear coordinates.
          Store integrals in memory, NReq=     4883431.
          There are   1 degrees of freedom in the 1st order CPHF.
     1 vectors were produced by pass  0.
 AX will form   1 AO Fock derivatives at one time.
     1 vectors were produced by pass  1.
     1 vectors were produced by pass  2.
     1 vectors were produced by pass  3.
     1 vectors were produced by pass  4.
     1 vectors were produced by pass  5.
     1 vectors were produced by pass  6.
     1 vectors were produced by pass  7.
     1 vectors were produced by pass  8.
     1 vectors were produced by pass  9.
     1 vectors were produced by pass 10.
     1 vectors were produced by pass 11.
 Inv2:  IOpt= 1 Iter= 1 AM= 2.95D-16 Conv= 1.00D-12.
 Inverted reduced A of dimension   12 with in-core refinement.
 End of Minotr Frequency-dependent properties file   721 does not exist.
 ***** Axes restored to original set *****
 -------------------------------------------------------------------
 Center     Atomic                   Forces (Hartrees/Bohr)
 Number     Number              X              Y              Z
 -------------------------------------------------------------------
    1          6           0.000445029    0.000603107   -0.000654359
    2          1           0.000000789    0.000012530    0.000006375
    3          1          -0.000004887    0.000004262    0.000010289
    4          1           0.000010188   -0.000006210    0.000003319
    5          6          -0.000531830   -0.000705739    0.000567730
    6          1           0.000016757   -0.000000116   -0.000005757
    7          1           0.000012943   -0.000006328    0.000006597
    8          8          -0.000378997   -0.000539868    0.001405627
    9          1           0.000430008    0.000638361   -0.001339821
 -------------------------------------------------------------------
 Cartesian Forces:  Max     0.001405627 RMS     0.000505257

 GradGradGradGradGradGradGradGradGradGradGradGradGradGradGradGradGradGrad
 Berny optimization.
 Internal  Forces:  Max     0.001392606 RMS     0.000338147
 Search for a local minimum.
 Step number   5 out of a maximum of  43
 All quantities printed in internal units (Hartrees-Bohrs-Radians)
 Update second derivatives using D2CorX and points  1  2  3  4  5

 Trust test= 9.61D-01 RLast= 2.88D-03 DXMaxT set to 3.54D-01
     Eigenvalues ---    0.00353   0.04354   0.04859   0.05605   0.05907
     Eigenvalues ---    0.11206   0.11929   0.15158   0.15971   0.16335
     Eigenvalues ---    0.17153   0.21907   0.32100   0.32180   0.32284
     Eigenvalues ---    0.32334   0.33860   0.34712   0.41837   0.56408
     Eigenvalues --- 1000.000001000.000001000.000001000.000001000.00000
     Eigenvalues --- 1000.000001000.000001000.000001000.000001000.00000
     Eigenvalues --- 1000.000001000.000001000.00000
 RFO step:  Lambda=-1.92249600D-08.
 Quartic linear search produced a step of -0.03975.
 Iteration  1 RMS(Cart)=  0.00007993 RMS(Int)=  0.00000001
 Iteration  2 RMS(Cart)=  0.00000001 RMS(Int)=  0.00000000
 Iteration  1 RMS(Cart)=  0.00000000 RMS(Int)=  0.00000000
 Variable       Old X    -DE/DX   Delta X   Delta X   Delta X     New X
                                 (Linear)    (Quad)   (Total)
    R1        2.08135   0.00000   0.00001  -0.00001  -0.00001   2.08134
    R2        2.08224   0.00000   0.00000  -0.00001  -0.00001   2.08223
    R3        2.08320  -0.00001   0.00000  -0.00004  -0.00004   2.08316
    R4        2.87111  -0.00001   0.00000  -0.00002  -0.00002   2.87108
    R5        2.09444  -0.00001   0.00000  -0.00005  -0.00005   2.09440
    R6        2.09608  -0.00001   0.00001  -0.00004  -0.00004   2.09604
    R7        2.69072  -0.00001  -0.00003   0.00002   0.00000   2.69072
    R8        1.82446   0.00001   0.00001  -0.00001   0.00000   1.82447
    A1        1.88874  -0.00001   0.00000  -0.00006  -0.00006   1.88868
    A2        1.90200  -0.00001  -0.00001  -0.00004  -0.00006   1.90195
    A3        1.92114   0.00002   0.00001   0.00008   0.00010   1.92123
    A4        1.89569  -0.00001  -0.00001  -0.00003  -0.00004   1.89564
    A5        1.92005   0.00001   0.00004   0.00002   0.00005   1.92011
    A6        1.93536   0.00000  -0.00002   0.00003   0.00001   1.93537
    A7        1.91054   0.00062  -0.00001   0.00015   0.00014   1.91068
    A8        1.92105  -0.00060   0.00000   0.00003   0.00003   1.92108
    A9        1.87882  -0.00002   0.00002  -0.00014  -0.00013   1.87869
   A10        1.87042   0.00000  -0.00001   0.00009   0.00008   1.87050
   A11        1.94336  -0.00002   0.00001  -0.00004  -0.00003   1.94333
   A12        1.93992   0.00002   0.00000  -0.00008  -0.00008   1.93984
   A13        1.86349  -0.00003  -0.00001  -0.00016  -0.00016   1.86332
    D1        1.04819   0.00011   0.00002  -0.00009  -0.00006   1.04813
    D2        3.09970   0.00012   0.00000   0.00013   0.00013   3.09984
    D3       -1.06664  -0.00023   0.00001  -0.00004  -0.00003  -1.06667
    D4        3.12798   0.00011   0.00005  -0.00010  -0.00005   3.12794
    D5       -1.10369   0.00012   0.00003   0.00012   0.00015  -1.10354
    D6        1.01316  -0.00022   0.00004  -0.00005  -0.00001   1.01314
    D7       -1.05781   0.00011   0.00004  -0.00011  -0.00006  -1.05787
    D8        0.99370   0.00012   0.00002   0.00011   0.00014   0.99383
    D9        3.11055  -0.00023   0.00003  -0.00006  -0.00003   3.11052
   D10        2.79253   0.00139   0.00000   0.00000   0.00000   2.79253
   D11        0.69836   0.00065   0.00000  -0.00007  -0.00007   0.69829
   D12       -1.38564   0.00065   0.00001  -0.00011  -0.00010  -1.38574
         Item               Value     Threshold  Converged?
 Maximum Force            0.000029     0.000450     YES
 RMS     Force            0.000010     0.000300     YES
 Maximum Displacement     0.000177     0.001800     YES
 RMS     Displacement     0.000080     0.001200     YES
 Predicted change in Energy=-9.992554D-09
 Optimization completed.
    -- Stationary point found.
                           ----------------------------
                           !   Optimized Parameters   !
                           ! (Angstroms and Degrees)  !
 --------------------------                            --------------------------
 ! Name  Definition              Value          Derivative Info.                !
 --------------------------------------------------------------------------------
 ! R1    R(1,2)                  1.1014         -DE/DX =    0.0                 !
 ! R2    R(1,3)                  1.1019         -DE/DX =    0.0                 !
 ! R3    R(1,4)                  1.1024         -DE/DX =    0.0                 !
 ! R4    R(1,5)                  1.5193         -DE/DX =    0.0                 !
 ! R5    R(5,6)                  1.1083         -DE/DX =    0.0                 !
 ! R6    R(5,7)                  1.1092         -DE/DX =    0.0                 !
 ! R7    R(5,8)                  1.4239         -DE/DX =    0.0                 !
 ! R8    R(8,9)                  0.9655         -DE/DX =    0.0                 !
 ! A1    A(2,1,3)              108.217          -DE/DX =    0.0                 !
 ! A2    A(2,1,4)              108.9766         -DE/DX =    0.0                 !
 ! A3    A(2,1,5)              110.0731         -DE/DX =    0.0                 !
 ! A4    A(3,1,4)              108.6148         -DE/DX =    0.0                 !
 ! A5    A(3,1,5)              110.0109         -DE/DX =    0.0                 !
 ! A6    A(4,1,5)              110.8881         -DE/DX =    0.0                 !
 ! A7    A(1,5,6)              109.4662         -DE/DX =    0.0006              !
 ! A8    A(1,5,7)              110.0682         -DE/DX =   -0.0006              !
 ! A9    A(1,5,8)              107.6484         -DE/DX =    0.0                 !
 ! A10   A(6,5,7)              107.167          -DE/DX =    0.0                 !
 ! A11   A(6,5,8)              111.3461         -DE/DX =    0.0                 !
 ! A12   A(7,5,8)              111.1492         -DE/DX =    0.0                 !
 ! A13   A(5,8,9)              106.7698         -DE/DX =    0.0                 !
 ! D1    D(2,1,5,6)             60.0569         -DE/DX =    0.0001              !
 ! D2    D(2,1,5,7)            177.5998         -DE/DX =    0.0001              !
 ! D3    D(2,1,5,8)            -61.1137         -DE/DX =   -0.0002              !
 ! D4    D(3,1,5,6)            179.2202         -DE/DX =    0.0001              !
 ! D5    D(3,1,5,7)            -63.237          -DE/DX =    0.0001              !
 ! D6    D(3,1,5,8)             58.0495         -DE/DX =   -0.0002              !
 ! D7    D(4,1,5,6)            -60.6082         -DE/DX =    0.0001              !
 ! D8    D(4,1,5,7)             56.9347         -DE/DX =    0.0001              !
 ! D9    D(4,1,5,8)            178.2212         -DE/DX =   -0.0002              !
 ! D10   D(1,5,8,9)            160.0            -DE/DX =    0.0014              !
 ! D11   D(6,5,8,9)             40.013          -DE/DX =    0.0007              !
 ! D12   D(7,5,8,9)            -79.3915         -DE/DX =    0.0007              !
 --------------------------------------------------------------------------------
 GradGradGradGradGradGradGradGradGradGradGradGradGradGradGradGradGradGrad

                          Input orientation:                          
 ---------------------------------------------------------------------
 Center     Atomic     Atomic              Coordinates (Angstroms)
 Number     Number      Type              X           Y           Z
 ---------------------------------------------------------------------
    1          6             0       -1.747041    1.101956    1.221490
    2          1             0       -1.661625    0.597173    2.196675
    3          1             0       -0.840063    1.708256    1.066838
    4          1             0       -2.620550    1.774149    1.241073
    5          6             0       -1.880092    0.073006    0.111577
    6          1             0       -2.786916   -0.540591    0.283527
    7          1             0       -2.009468    0.581744   -0.865546
    8          8             0       -0.702807   -0.727802    0.121927
    9          1             0       -0.918764   -1.546576   -0.341855
 ---------------------------------------------------------------------
                    Distance matrix (angstroms):
                    1          2          3          4          5
     1  C    0.000000
     2  H    1.101402   0.000000
     3  H    1.101873   1.784937   0.000000
     4  H    1.102381   1.793874   1.790205   0.000000
     5  C    1.519325   2.161044   2.160607   2.172079   0.000000
     6  H    2.158489   2.494177   3.075894   2.510497   1.108331
     7  H    2.166843   3.081952   2.524013   2.496617   1.109198
     8  O    2.376442   2.641869   2.616500   3.345143   1.423868
     9  H    3.185093   3.404649   3.547470   4.053264   1.937214
                    6          7          8          9
     6  H    0.000000
     7  H    1.784497   0.000000
     8  O    2.098731   2.096992   0.000000
     9  H    2.212035   2.448190   0.965465   0.000000
 Stoichiometry    C2H6O
 Framework group  C1[X(C2H6O)]
 Deg. of freedom    21
 Full point group                 C1
 Largest Abelian subgroup         C1      NOp   1
 Largest concise Abelian subgroup C1      NOp   1
                         Standard orientation:                         
 ---------------------------------------------------------------------
 Center     Atomic     Atomic              Coordinates (Angstroms)
 Number     Number      Type              X           Y           Z
 ---------------------------------------------------------------------
    1          6             0        1.218626   -0.224518    0.015779
    2          1             0        1.268563   -0.843576    0.925372
    3          1             0        1.282702   -0.891617   -0.858863
    4          1             0        2.082524    0.460087    0.000216
    5          6             0       -0.087597    0.550789   -0.016268
    6          1             0       -0.148977    1.207977    0.874090
    7          1             0       -0.119020    1.206760   -0.910156
    8          8             0       -1.151068   -0.395803   -0.036062
    9          1             0       -1.943422    0.069161    0.260766
 ---------------------------------------------------------------------
 Rotational constants (GHZ):     34.5502001      9.3853407      8.1679695

 **********************************************************************

            Population analysis using the SCF density.

 **********************************************************************

 Orbital symmetries:
       Occupied  (A) (A) (A) (A) (A) (A) (A) (A) (A) (A) (A) (A)
                 (A)
       Virtual   (A) (A) (A) (A) (A) (A) (A) (A) (A) (A) (A) (A)
                 (A) (A) (A) (A) (A) (A) (A) (A) (A) (A) (A) (A)
                 (A) (A) (A) (A) (A) (A) (A) (A) (A) (A) (A) (A)
                 (A) (A) (A) (A) (A) (A) (A) (A) (A) (A) (A) (A)
                 (A) (A) (A) (A) (A) (A) (A) (A) (A) (A) (A)
 The electronic state is 1-A.
 Alpha  occ. eigenvalues --  -20.55021 -11.27964 -11.22107  -1.35123  -1.00615
 Alpha  occ. eigenvalues --   -0.82734  -0.69169  -0.63594  -0.56434  -0.53068
 Alpha  occ. eigenvalues --   -0.51808  -0.48111  -0.43485
 Alpha virt. eigenvalues --    0.18036   0.21450   0.24369   0.25079   0.26787
 Alpha virt. eigenvalues --    0.29236   0.37937   0.39743   0.60458   0.61467
 Alpha virt. eigenvalues --    0.66551   0.74479   0.75057   0.81078   0.85553
 Alpha virt. eigenvalues --    0.86621   0.88635   0.89410   0.90192   0.93203
 Alpha virt. eigenvalues --    1.12924   1.14683   1.17493   1.26243   1.32943
 Alpha virt. eigenvalues --    1.42536   1.46962   1.50370   1.53491   1.63052
 Alpha virt. eigenvalues --    1.68485   1.76712   1.85816   1.87381   1.89621
 Alpha virt. eigenvalues --    1.91422   1.93107   1.96088   1.97123   1.99383
 Alpha virt. eigenvalues --    2.09533   2.17385   2.23523   2.27361   2.30644
 Alpha virt. eigenvalues --    2.47325   2.50449   2.52551   2.55502   2.73467
 Alpha virt. eigenvalues --    2.74607   2.79651   2.86718   2.89989   3.32252
 Alpha virt. eigenvalues --    3.40189   3.47024   3.59828   4.10911
          Condensed to atoms (all electrons):
              1          2          3          4          5          6
     1  C    4.551536   0.401596   0.405191   0.395535   0.429980  -0.031770
     2  H    0.401596   0.631732  -0.027010  -0.021901  -0.028304  -0.009609
     3  H    0.405191  -0.027010   0.626619  -0.022694  -0.028177   0.008398
     4  H    0.395535  -0.021901  -0.022694   0.649357  -0.026418  -0.001619
     5  C    0.429980  -0.028304  -0.028177  -0.026418   4.418565   0.405332
     6  H   -0.031770  -0.009609   0.008398  -0.001619   0.405332   0.699176
     7  H   -0.038507   0.008375  -0.008766  -0.000767   0.405865  -0.046447
     8  O   -0.049829   0.004295   0.001982   0.002915   0.314074  -0.028686
     9  H    0.006676  -0.000028  -0.000336  -0.000451  -0.035401  -0.009524
              7          8          9
     1  C   -0.038507  -0.049829   0.006676
     2  H    0.008375   0.004295  -0.000028
     3  H   -0.008766   0.001982  -0.000336
     4  H   -0.000767   0.002915  -0.000451
     5  C    0.405865   0.314074  -0.035401
     6  H   -0.046447  -0.028686  -0.009524
     7  H    0.692811  -0.030707  -0.000171
     8  O   -0.030707   7.813743   0.354977
     9  H   -0.000171   0.354977   0.520326
 Mulliken atomic charges:
              1
     1  C   -0.070407
     2  H    0.040854
     3  H    0.044794
     4  H    0.026043
     5  C    0.144485
     6  H    0.014748
     7  H    0.018313
     8  O   -0.382764
     9  H    0.163932
 Sum of Mulliken charges=   0.00000
 Atomic charges with hydrogens summed into heavy atoms:
              1
     1  C    0.041285
     2  H    0.000000
     3  H    0.000000
     4  H    0.000000
     5  C    0.177547
     6  H    0.000000
     7  H    0.000000
     8  O   -0.218832
     9  H    0.000000
 Sum of Mulliken charges=   0.00000
 Electronic spatial extent (au):  <R**2>=   193.8802
 Charge=     0.0000 electrons
 Dipole moment (field-independent basis, Debye):
    X=    -0.1486    Y=     1.6363    Z=     0.5207  Tot=     1.7236
 Quadrupole moment (field-independent basis, Debye-Ang):
   XX=   -17.4717   YY=   -20.5468   ZZ=   -19.8548
   XY=    -1.8442   XZ=    -1.2006   YZ=     0.0575
 Traceless Quadrupole moment (field-independent basis, Debye-Ang):
   XX=     1.8194   YY=    -1.2557   ZZ=    -0.5637
   XY=    -1.8442   XZ=    -1.2006   YZ=     0.0575
 Octapole moment (field-independent basis, Debye-Ang**2):
  XXX=   -15.6902  YYY=    -0.7484  ZZZ=     0.2201  XYY=    -0.9348
  XXY=     2.6468  XXZ=     2.3239  XZZ=    -1.9200  YZZ=    -0.4089
  YYZ=    -0.0128  XYZ=    -0.0344
 Hexadecapole moment (field-independent basis, Debye-Ang**3):
 XXXX=  -134.4137 YYYY=   -57.6384 ZZZZ=   -32.9438 XXXY=     0.2260
 XXXZ=    -5.1356 YYYX=     1.3144 YYYZ=     0.2180 ZZZX=    -0.6314
 ZZZY=     0.0037 XXYY=   -35.9264 XXZZ=   -31.9870 YYZZ=   -13.8194
 XXYZ=     0.1906 YYXZ=    -0.2532 ZZXY=    -0.5857
 N-N= 8.157969143283D+01 E-N=-5.250196192790D+02  KE= 1.538631916638D+02

 Test job not archived.
 1\1\GINC-ELF45\FOpt\RMP2-FC\CC-pVDZ\C2H6O1\CJWU\26-Feb-2009\0\\# MP2/c
 c-pvdz opt=modredundant maxdisk=30GB test\\Generated with COMPARE prog
 ram by Chuanjie Wu\\0,1\C,-1.7470408665,1.1019562933,1.22149024\H,-1.6
 616252662,0.597173104,2.1966748266\H,-0.8400633004,1.7082556303,1.0668
 377073\H,-2.6205503493,1.7741485946,1.2410734128\C,-1.8800916012,0.073
 0060292,0.1115770864\H,-2.7869155848,-0.5405912805,0.2835272718\H,-2.0
 094676121,0.5817438166,-0.8655455639\O,-0.7028070792,-0.7278018098,0.1
 219269729\H,-0.9187643403,-1.5465763776,-0.3418549539\\Version=EM64M-G
 03RevE.01\State=1-A\HF=-154.0908606\MP2=-154.5728061\RMSD=4.417e-09\RM
 SF=5.053e-04\Thermal=0.\Dipole=-0.5146255,-0.2156361,-0.2506395\PG=C01
  [X(C2H6O1)]\\@


 A COMPUTER IS LIKE A HORSE, IT WILL SENSE WEAKNESS.
     -- GREG WETTSTEIN
 Job cpu time:  0 days  0 hours  1 minutes  5.3 seconds.
 File lengths (MBytes):  RWF=     13 Int=      0 D2E=      0 Chk=      6 Scr=      1
 Normal termination of Gaussian 03 at Thu Feb 26 18:40:18 2009.
