 Entering Gaussian System, Link 0=g03
 Input=potscan_1.gjf
 Output=potscan_1.log
 Initial command:
 /local/gaussian/g03/bin-macosx/l1.exe /scratch/cjwu/Gau-11025.inp -scrdir=/scratch/cjwu/
 Entering Link 1 = /local/gaussian/g03/bin-macosx/l1.exe PID=     11026.
  
 Copyright (c) 1988,1990,1992,1993,1995,1998,2003,2004,2007, Gaussian, Inc.
                  All Rights Reserved.
  
 This is the Gaussian(R) 03 program.  It is based on the
 the Gaussian(R) 98 system (copyright 1998, Gaussian, Inc.),
 the Gaussian(R) 94 system (copyright 1995, Gaussian, Inc.),
 the Gaussian 92(TM) system (copyright 1992, Gaussian, Inc.),
 the Gaussian 90(TM) system (copyright 1990, Gaussian, Inc.),
 the Gaussian 88(TM) system (copyright 1988, Gaussian, Inc.),
 the Gaussian 86(TM) system (copyright 1986, Carnegie Mellon
 University), and the Gaussian 82(TM) system (copyright 1983,
 Carnegie Mellon University). Gaussian is a federally registered
 trademark of Gaussian, Inc.
  
 This software contains proprietary and confidential information,
 including trade secrets, belonging to Gaussian, Inc.
  
 This software is provided under written license and may be
 used, copied, transmitted, or stored only in accord with that
 written license.
  
 The following legend is applicable only to US Government
 contracts under FAR:
  
                    RESTRICTED RIGHTS LEGEND
  
 Use, reproduction and disclosure by the US Government is
 subject to restrictions as set forth in subparagraphs (a)
 and (c) of the Commercial Computer Software - Restricted
 Rights clause in FAR 52.227-19.
  
 Gaussian, Inc.
 340 Quinnipiac St., Bldg. 40, Wallingford CT 06492
  
  
 ---------------------------------------------------------------
 Warning -- This program may not be used in any manner that
 competes with the business of Gaussian, Inc. or will provide
 assistance to any competitor of Gaussian, Inc.  The licensee
 of this program is prohibited from giving any competitor of
 Gaussian, Inc. access to this program.  By using this program,
 the user acknowledges that Gaussian, Inc. is engaged in the
 business of creating and licensing software in the field of
 computational chemistry and represents and warrants to the
 licensee that it is not a competitor of Gaussian, Inc. and that
 it will not use this program in any manner prohibited above.
 ---------------------------------------------------------------
  

 Cite this work as:
 Gaussian 03, Revision E.01,
 M. J. Frisch, G. W. Trucks, H. B. Schlegel, G. E. Scuseria, 
 M. A. Robb, J. R. Cheeseman, J. A. Montgomery, Jr., T. Vreven, 
 K. N. Kudin, J. C. Burant, J. M. Millam, S. S. Iyengar, J. Tomasi, 
 V. Barone, B. Mennucci, M. Cossi, G. Scalmani, N. Rega, 
 G. A. Petersson, H. Nakatsuji, M. Hada, M. Ehara, K. Toyota, 
 R. Fukuda, J. Hasegawa, M. Ishida, T. Nakajima, Y. Honda, O. Kitao, 
 H. Nakai, M. Klene, X. Li, J. E. Knox, H. P. Hratchian, J. B. Cross, 
 V. Bakken, C. Adamo, J. Jaramillo, R. Gomperts, R. E. Stratmann, 
 O. Yazyev, A. J. Austin, R. Cammi, C. Pomelli, J. W. Ochterski, 
 P. Y. Ayala, K. Morokuma, G. A. Voth, P. Salvador, J. J. Dannenberg, 
 V. G. Zakrzewski, S. Dapprich, A. D. Daniels, M. C. Strain, 
 O. Farkas, D. K. Malick, A. D. Rabuck, K. Raghavachari, 
 J. B. Foresman, J. V. Ortiz, Q. Cui, A. G. Baboul, S. Clifford, 
 J. Cioslowski, B. B. Stefanov, G. Liu, A. Liashenko, P. Piskorz, 
 I. Komaromi, R. L. Martin, D. J. Fox, T. Keith, M. A. Al-Laham, 
 C. Y. Peng, A. Nanayakkara, M. Challacombe, P. M. W. Gill, 
 B. Johnson, W. Chen, M. W. Wong, C. Gonzalez, and J. A. Pople, 
 Gaussian, Inc., Wallingford CT, 2004.
 
 ******************************************
 Gaussian 03:  EM64M-G03RevE.01 11-Sep-2007
                26-Feb-2009 
 ******************************************
 %chk=potscan_1.chk
 %mem=50mw
 ------------------------------------------------
 # MP2/cc-pvdz opt=modredundant maxdisk=30GB test
 ------------------------------------------------
 1/18=120,38=1/1,3;
 2/9=110,17=6,18=5,40=1/2;
 3/5=16,11=9,16=1,25=1,30=1/1,2,3;
 4//1;
 5/5=2,38=5/2;
 8/6=4,10=1/1;
 9/15=2,16=-3/6;
 10/5=1/2;
 6/7=2,8=2,9=2,10=2/1;
 7/12=2/1,2,3,16;
 1/18=20/3(3);
 2/9=110/2;
 6/7=2,8=2,9=2,10=2/1;
 99//99;
 2/9=110/2;
 3/5=16,11=9,16=1,25=1,30=1/1,2,3;
 4/5=5,16=3/1;
 5/5=2,38=5/2;
 8/6=4,10=1/1;
 9/15=2,16=-3/6;
 10/5=1/2;
 7/12=2/1,2,3,16;
 1/18=20/3(-8);
 2/9=110/2;
 6/7=2,8=2,9=2,10=2/1;
 99//99;
 ---------------------------------------------
 Generated with COMPARE program by Chuanjie Wu
 ---------------------------------------------
 Symbolic Z-matrix:
 Charge =  0 Multiplicity = 1
 C                    -1.74598   1.10669   1.22578 
 H                    -1.66068   0.62843   2.22731 
 H                    -0.85885   1.76282   1.07889 
 H                    -2.64129   1.76716   1.2531 
 C                    -1.87464   0.06752   0.10953 
 H                    -2.77532  -0.56612   0.26812 
 H                    -1.97584   0.56758  -0.87919 
 O                    -0.72062  -0.75435   0.10153 
 H                    -0.3005   -0.68265   0.94831 
 
 The following ModRedundant input section has been read:
 D    1    5    8    9 F                                                       

 GradGradGradGradGradGradGradGradGradGradGradGradGradGradGradGradGradGrad
 Berny optimization.
 Initialization pass.
                           ----------------------------
                           !    Initial Parameters    !
                           ! (Angstroms and Degrees)  !
 --------------------------                            --------------------------
 ! Name  Definition              Value          Derivative Info.                !
 --------------------------------------------------------------------------------
 ! R1    R(1,2)                  1.1131         estimate D2E/DX2                !
 ! R2    R(1,3)                  1.1131         estimate D2E/DX2                !
 ! R3    R(1,4)                  1.1129         estimate D2E/DX2                !
 ! R4    R(1,5)                  1.5305         estimate D2E/DX2                !
 ! R5    R(5,6)                  1.1126         estimate D2E/DX2                !
 ! R6    R(5,7)                  1.1126         estimate D2E/DX2                !
 ! R7    R(5,8)                  1.4168         estimate D2E/DX2                !
 ! R8    R(8,9)                  0.948          estimate D2E/DX2                !
 ! A1    A(2,1,3)              108.1144         estimate D2E/DX2                !
 ! A2    A(2,1,4)              107.13           estimate D2E/DX2                !
 ! A3    A(2,1,5)              111.7728         estimate D2E/DX2                !
 ! A4    A(3,1,4)              107.1319         estimate D2E/DX2                !
 ! A5    A(3,1,5)              111.7753         estimate D2E/DX2                !
 ! A6    A(4,1,5)              110.6845         estimate D2E/DX2                !
 ! A7    A(1,5,6)              110.5349         estimate D2E/DX2                !
 ! A8    A(1,5,7)              110.5243         estimate D2E/DX2                !
 ! A9    A(1,5,8)              109.2392         estimate D2E/DX2                !
 ! A10   A(6,5,7)              107.9995         estimate D2E/DX2                !
 ! A11   A(6,5,8)              109.2579         estimate D2E/DX2                !
 ! A12   A(7,5,8)              109.2566         estimate D2E/DX2                !
 ! A13   A(5,8,9)              108.1832         estimate D2E/DX2                !
 ! D1    D(2,1,5,6)             59.5276         estimate D2E/DX2                !
 ! D2    D(2,1,5,7)            179.0373         estimate D2E/DX2                !
 ! D3    D(2,1,5,8)            -60.7216         estimate D2E/DX2                !
 ! D4    D(3,1,5,6)           -179.1347         estimate D2E/DX2                !
 ! D5    D(3,1,5,7)            -59.625          estimate D2E/DX2                !
 ! D6    D(3,1,5,8)             60.616          estimate D2E/DX2                !
 ! D7    D(4,1,5,6)            -59.8015         estimate D2E/DX2                !
 ! D8    D(4,1,5,7)             59.7082         estimate D2E/DX2                !
 ! D9    D(4,1,5,8)            179.9493         estimate D2E/DX2                !
 ! D10   D(1,5,8,9)             20.0            Frozen                          !
 ! D11   D(6,5,8,9)           -101.0295         estimate D2E/DX2                !
 ! D12   D(7,5,8,9)            141.0158         estimate D2E/DX2                !
 --------------------------------------------------------------------------------
 Trust Radius=3.00D-01 FncErr=1.00D-07 GrdErr=1.00D-07
 Number of steps in this run=  43 maximum allowed number of steps= 100.
 GradGradGradGradGradGradGradGradGradGradGradGradGradGradGradGradGradGrad

                          Input orientation:                          
 ---------------------------------------------------------------------
 Center     Atomic     Atomic              Coordinates (Angstroms)
 Number     Number      Type              X           Y           Z
 ---------------------------------------------------------------------
    1          6             0       -1.745979    1.106694    1.225781
    2          1             0       -1.660682    0.628428    2.227315
    3          1             0       -0.858852    1.762824    1.078893
    4          1             0       -2.641291    1.767156    1.253102
    5          6             0       -1.874638    0.067519    0.109528
    6          1             0       -2.775317   -0.566120    0.268116
    7          1             0       -1.975836    0.567582   -0.879185
    8          8             0       -0.720620   -0.754349    0.101531
    9          1             0       -0.300501   -0.682646    0.948312
 ---------------------------------------------------------------------
                    Distance matrix (angstroms):
                    1          2          3          4          5
     1  C    0.000000
     2  H    1.113142   0.000000
     3  H    1.113138   1.802404   0.000000
     4  H    1.112897   1.790918   1.790937   0.000000
     5  C    1.530509   2.201231   2.201261   2.187301   0.000000
     6  H    2.185169   2.551042   3.123168   2.536205   1.112597
     7  H    2.185030   3.123038   2.551534   2.535440   1.112590
     8  O    2.403909   2.704579   2.703794   3.372400   1.416788
     9  H    2.316923   2.281415   2.511798   3.402018   1.934997
                    6          7          8          9
     6  H    0.000000
     7  H    1.800208   0.000000
     8  O    2.070015   2.069993   0.000000
     9  H    2.569233   2.776610   0.947987   0.000000
 Stoichiometry    C2H6O
 Framework group  C1[X(C2H6O)]
 Deg. of freedom    21
 Full point group                 C1
 Largest Abelian subgroup         C1      NOp   1
 Largest concise Abelian subgroup C1      NOp   1
                         Standard orientation:                         
 ---------------------------------------------------------------------
 Center     Atomic     Atomic              Coordinates (Angstroms)
 Number     Number      Type              X           Y           Z
 ---------------------------------------------------------------------
    1          6             0        1.179883   -0.234774   -0.012271
    2          1             0        1.241955   -0.935439    0.850457
    3          1             0        1.261568   -0.830855   -0.948803
    4          1             0        2.075171    0.424533    0.035832
    5          6             0       -0.105394    0.595494    0.022017
    6          1             0       -0.158446    1.194128    0.958336
    7          1             0       -0.137889    1.299804   -0.838650
    8          8             0       -1.223553   -0.272224   -0.041823
    9          1             0       -0.940871   -1.138696    0.218942
 ---------------------------------------------------------------------
 Rotational constants (GHZ):     32.2928113      9.6551697      8.2449946
 Standard basis: CC-pVDZ (5D, 7F)
 There are    72 symmetry adapted basis functions of A   symmetry.
 Integral buffers will be    131072 words long.
 Raffenetti 1 integral format.
 Two-electron integral symmetry is turned on.
    72 basis functions,   141 primitive gaussians,    75 cartesian basis functions
    13 alpha electrons       13 beta electrons
       nuclear repulsion energy        81.7471057285 Hartrees.
 NAtoms=    9 NActive=    9 NUniq=    9 SFac= 7.50D-01 NAtFMM=   80 NAOKFM=F Big=F
 One-electron integrals computed using PRISM.
 NBasis=    72 RedAO= T  NBF=    72
 NBsUse=    72 1.00D-06 NBFU=    72
 Harris functional with IExCor=  205 diagonalized for initial guess.
 ExpMin= 1.22D-01 ExpMax= 1.17D+04 ExpMxC= 4.01D+02 IAcc=1 IRadAn=         1 AccDes= 1.00D-06
 HarFok:  IExCor= 205 AccDes= 1.00D-06 IRadAn=         1 IDoV=1
 ScaDFX=  1.000000  1.000000  1.000000  1.000000
 Initial guess orbital symmetries:
       Occupied  (A) (A) (A) (A) (A) (A) (A) (A) (A) (A) (A) (A)
                 (A)
       Virtual   (A) (A) (A) (A) (A) (A) (A) (A) (A) (A) (A) (A)
                 (A) (A) (A) (A) (A) (A) (A) (A) (A) (A) (A) (A)
                 (A) (A) (A) (A) (A) (A) (A) (A) (A) (A) (A) (A)
                 (A) (A) (A) (A) (A) (A) (A) (A) (A) (A) (A) (A)
                 (A) (A) (A) (A) (A) (A) (A) (A) (A) (A) (A)
 The electronic state of the initial guess is 1-A.
 Requested convergence on RMS density matrix=1.00D-08 within 128 cycles.
 Requested convergence on MAX density matrix=1.00D-06.
 Requested convergence on             energy=1.00D-06.
 No special actions if energy rises.
 Keep R1 integrals in memory in canonical form, NReq=     5139848.
 SCF Done:  E(RHF) =  -154.088220362     A.U. after   11 cycles
             Convg  =    0.9857D-08             -V/T =  2.0016
             S**2   =   0.0000
 ExpMin= 1.22D-01 ExpMax= 1.17D+04 ExpMxC= 4.01D+02 IAcc=1 IRadAn=         1 AccDes= 1.00D-06
 HarFok:  IExCor= 205 AccDes= 1.00D-06 IRadAn=         1 IDoV=1
 ScaDFX=  1.000000  1.000000  1.000000  1.000000
 Range of M.O.s used for correlation:     4    72
 NBasis=    72 NAE=    13 NBE=    13 NFC=     3 NFV=     0
 NROrb=     69 NOA=    10 NOB=    10 NVA=    59 NVB=    59
 Fully direct method using O(ONN) memory.
 JobTyp=1 Pass  1:  I=   4 to  13 NPSUse=  1 ParTrn=F ParDer=F DoDerP=T.
 Spin components of T(2) and E(2):
     alpha-alpha T2 =       0.1738903275D-01 E2=     -0.5668535118D-01
     alpha-beta  T2 =       0.1117117141D+00 E2=     -0.3684399347D+00
     beta-beta   T2 =       0.1738903275D-01 E2=     -0.5668535118D-01
 ANorm=    0.1070742630D+01
 E2 =    -0.4818106371D+00 EUMP2 =    -0.15457003099918D+03
 DoAtom=TTTTTTTTT
          Differentiating once with respect to electric field.
                with respect to dipole field.
          Differentiating once with respect to nuclear coordinates.
          Store integrals in memory, NReq=     4883431.
          There are   1 degrees of freedom in the 1st order CPHF.
     1 vectors were produced by pass  0.
 AX will form   1 AO Fock derivatives at one time.
     1 vectors were produced by pass  1.
     1 vectors were produced by pass  2.
     1 vectors were produced by pass  3.
     1 vectors were produced by pass  4.
     1 vectors were produced by pass  5.
     1 vectors were produced by pass  6.
     1 vectors were produced by pass  7.
     1 vectors were produced by pass  8.
     1 vectors were produced by pass  9.
     1 vectors were produced by pass 10.
     1 vectors were produced by pass 11.
 Inv2:  IOpt= 1 Iter= 1 AM= 4.45D-16 Conv= 1.00D-12.
 Inverted reduced A of dimension   12 with in-core refinement.
 End of Minotr Frequency-dependent properties file   721 does not exist.

 **********************************************************************

            Population analysis using the SCF density.

 **********************************************************************

 Orbital symmetries:
       Occupied  (A) (A) (A) (A) (A) (A) (A) (A) (A) (A) (A) (A)
                 (A)
       Virtual   (A) (A) (A) (A) (A) (A) (A) (A) (A) (A) (A) (A)
                 (A) (A) (A) (A) (A) (A) (A) (A) (A) (A) (A) (A)
                 (A) (A) (A) (A) (A) (A) (A) (A) (A) (A) (A) (A)
                 (A) (A) (A) (A) (A) (A) (A) (A) (A) (A) (A) (A)
                 (A) (A) (A) (A) (A) (A) (A) (A) (A) (A) (A)
 The electronic state is 1-A.
 Alpha  occ. eigenvalues --  -20.54453 -11.28257 -11.23776  -1.35602  -1.00541
 Alpha  occ. eigenvalues --   -0.84779  -0.66108  -0.63124  -0.61569  -0.52944
 Alpha  occ. eigenvalues --   -0.52454  -0.47683  -0.43331
 Alpha virt. eigenvalues --    0.18034   0.21833   0.23502   0.24535   0.25809
 Alpha virt. eigenvalues --    0.28417   0.37457   0.40126   0.59020   0.61526
 Alpha virt. eigenvalues --    0.66918   0.74083   0.75834   0.80675   0.84214
 Alpha virt. eigenvalues --    0.86025   0.87778   0.88121   0.90331   0.92015
 Alpha virt. eigenvalues --    1.10904   1.14151   1.15867   1.29123   1.33076
 Alpha virt. eigenvalues --    1.40300   1.44390   1.49457   1.50101   1.65781
 Alpha virt. eigenvalues --    1.66636   1.79197   1.85163   1.86676   1.87922
 Alpha virt. eigenvalues --    1.90716   1.92131   1.93533   1.95414   2.00106
 Alpha virt. eigenvalues --    2.07231   2.14974   2.22960   2.28320   2.30850
 Alpha virt. eigenvalues --    2.46316   2.47750   2.52330   2.53258   2.69725
 Alpha virt. eigenvalues --    2.73160   2.79549   2.85746   2.87905   3.32902
 Alpha virt. eigenvalues --    3.41125   3.44793   3.65160   4.12636
          Condensed to atoms (all electrons):
              1          2          3          4          5          6
     1  C    4.618686   0.402201   0.401726   0.392221   0.440500  -0.033363
     2  H    0.402201   0.644893  -0.032990  -0.021792  -0.029046  -0.010176
     3  H    0.401726  -0.032990   0.631934  -0.020240  -0.028963   0.007942
     4  H    0.392221  -0.021792  -0.020240   0.632404  -0.021963  -0.001062
     5  C    0.440500  -0.029046  -0.028963  -0.021963   4.381216   0.404407
     6  H   -0.033363  -0.010176   0.007942  -0.001062   0.404407   0.686654
     7  H   -0.027844   0.007284  -0.009877  -0.002693   0.404409  -0.046790
     8  O   -0.048927  -0.000636   0.002766   0.003778   0.324605  -0.032614
     9  H   -0.010148   0.004733   0.000527   0.000176  -0.052034   0.001903
              7          8          9
     1  C   -0.027844  -0.048927  -0.010148
     2  H    0.007284  -0.000636   0.004733
     3  H   -0.009877   0.002766   0.000527
     4  H   -0.002693   0.003778   0.000176
     5  C    0.404409   0.324605  -0.052034
     6  H   -0.046790  -0.032614   0.001903
     7  H    0.660097  -0.026599   0.006316
     8  O   -0.026599   7.779154   0.374532
     9  H    0.006316   0.374532   0.520420
 Mulliken atomic charges:
              1
     1  C   -0.135052
     2  H    0.035528
     3  H    0.047174
     4  H    0.039172
     5  C    0.176869
     6  H    0.023097
     7  H    0.035697
     8  O   -0.376060
     9  H    0.153574
 Sum of Mulliken charges=   0.00000
 Atomic charges with hydrogens summed into heavy atoms:
              1
     1  C   -0.013178
     2  H    0.000000
     3  H    0.000000
     4  H    0.000000
     5  C    0.235663
     6  H    0.000000
     7  H    0.000000
     8  O   -0.222486
     9  H    0.000000
 Sum of Mulliken charges=   0.00000
 Electronic spatial extent (au):  <R**2>=   192.5751
 Charge=     0.0000 electrons
 Dipole moment (field-independent basis, Debye):
    X=     1.7621    Y=    -0.4629    Z=     0.4243  Tot=     1.8706
 Quadrupole moment (field-independent basis, Debye-Ang):
   XX=   -23.4706   YY=   -17.4060   ZZ=   -19.8341
   XY=     0.7064   XZ=    -0.5503   YZ=    -0.7041
 Traceless Quadrupole moment (field-independent basis, Debye-Ang):
   XX=    -3.2337   YY=     2.8309   ZZ=     0.4028
   XY=     0.7064   XZ=    -0.5503   YZ=    -0.7041
 Octapole moment (field-independent basis, Debye-Ang**2):
  XXX=    -0.1242  YYY=    -4.2301  ZZZ=    -0.0571  XYY=    -3.9956
  XXY=    -0.1829  XXZ=     0.4838  XZZ=    -1.5535  YZZ=    -0.5307
  YYZ=     0.4824  XYZ=     0.6621
 Hexadecapole moment (field-independent basis, Debye-Ang**3):
 XXXX=  -158.6722 YYYY=   -56.5425 ZZZZ=   -33.0357 XXXY=     4.5755
 XXXZ=    -0.4000 YYYX=     5.5226 YYYZ=    -1.5858 ZZZX=    -0.3980
 ZZZY=    -0.2977 XXYY=   -32.7105 XXZZ=   -31.6139 YYZZ=   -13.9660
 XXYZ=    -0.6475 YYXZ=    -0.5400 ZZXY=    -0.1056
 N-N= 8.174710572847D+01 E-N=-5.252202738579D+02  KE= 1.538420565474D+02
 ***** Axes restored to original set *****
 -------------------------------------------------------------------
 Center     Atomic                   Forces (Hartrees/Bohr)
 Number     Number              X              Y              Z
 -------------------------------------------------------------------
    1          6          -0.009676914    0.011203087    0.000323612
    2          1          -0.000454532    0.000132382   -0.006444530
    3          1          -0.004207284   -0.006154787   -0.001139703
    4          1           0.004647656   -0.003102225    0.001104558
    5          6           0.003753801    0.002014406    0.012403481
    6          1           0.000564858    0.004795425   -0.000518809
    7          1           0.002012056   -0.003785996    0.005057473
    8          8          -0.000968220   -0.007198422   -0.027553647
    9          1           0.004328580    0.002096130    0.016767564
 -------------------------------------------------------------------
 Cartesian Forces:  Max     0.027553647 RMS     0.007949186

 GradGradGradGradGradGradGradGradGradGradGradGradGradGradGradGradGradGrad
 Berny optimization.
 Internal  Forces:  Max     0.017054318 RMS     0.005388535
 Search for a local minimum.
 Step number   1 out of a maximum of  43
 All quantities printed in internal units (Hartrees-Bohrs-Radians)
 Second derivative matrix not updated -- first step.
     Eigenvalues ---    0.00362   0.04312   0.05356   0.05533   0.05763
     Eigenvalues ---    0.11385   0.11908   0.16000   0.16000   0.16000
     Eigenvalues ---    0.16000   0.21995   0.29376   0.32270   0.32270
     Eigenvalues ---    0.32295   0.32327   0.32327   0.42948   0.58140
     Eigenvalues --- 1000.000001000.000001000.000001000.000001000.00000
     Eigenvalues --- 1000.000001000.000001000.000001000.000001000.00000
     Eigenvalues --- 1000.000001000.000001000.00000
 RFO step:  Lambda=-3.79477006D-03.
 Linear search not attempted -- first point.
 Iteration  1 RMS(Cart)=  0.03432397 RMS(Int)=  0.00085311
 Iteration  2 RMS(Cart)=  0.00093075 RMS(Int)=  0.00046104
 Iteration  3 RMS(Cart)=  0.00000021 RMS(Int)=  0.00046104
 Iteration  1 RMS(Cart)=  0.00015995 RMS(Int)=  0.00014950
 Iteration  2 RMS(Cart)=  0.00007849 RMS(Int)=  0.00016714
 Iteration  3 RMS(Cart)=  0.00003851 RMS(Int)=  0.00018645
 Iteration  4 RMS(Cart)=  0.00001890 RMS(Int)=  0.00019773
 Iteration  5 RMS(Cart)=  0.00000927 RMS(Int)=  0.00020362
 Iteration  6 RMS(Cart)=  0.00000455 RMS(Int)=  0.00020659
 Iteration  7 RMS(Cart)=  0.00000223 RMS(Int)=  0.00020806
 Iteration  8 RMS(Cart)=  0.00000110 RMS(Int)=  0.00020879
 Iteration  9 RMS(Cart)=  0.00000054 RMS(Int)=  0.00020914
 Variable       Old X    -DE/DX   Delta X   Delta X   Delta X     New X
                                 (Linear)    (Quad)   (Total)
    R1        2.10353  -0.00589   0.00000  -0.01804  -0.01804   2.08549
    R2        2.10353  -0.00683   0.00000  -0.02092  -0.02092   2.08261
    R3        2.10307  -0.00555   0.00000  -0.01699  -0.01699   2.08608
    R4        2.89224  -0.00389   0.00000  -0.01308  -0.01308   2.87916
    R5        2.10250  -0.00326   0.00000  -0.00997  -0.00997   2.09253
    R6        2.10249  -0.00638   0.00000  -0.01950  -0.01950   2.08299
    R7        2.67734   0.00576   0.00000   0.01329   0.01329   2.69063
    R8        1.79144   0.01705   0.00000   0.02914   0.02914   1.82058
    A1        1.88695   0.00293   0.00000   0.00613   0.00531   1.89227
    A2        1.86977   0.00055   0.00000   0.00717   0.00738   1.87715
    A3        1.95080  -0.00368   0.00000  -0.02696  -0.02726   1.92354
    A4        1.86981   0.00132   0.00000   0.01653   0.01671   1.88652
    A5        1.95085  -0.00411   0.00000  -0.02714  -0.02746   1.92339
    A6        1.93181   0.00336   0.00000   0.02702   0.02723   1.95904
    A7        1.92920  -0.00501   0.00000  -0.02461  -0.02649   1.90270
    A8        1.92901  -0.00306   0.00000  -0.01623  -0.01554   1.91347
    A9        1.90658   0.01521   0.00000   0.07483   0.07453   1.98111
   A10        1.88495   0.00134   0.00000  -0.01622  -0.01675   1.86820
   A11        1.90691  -0.00163   0.00000   0.02232   0.02190   1.92881
   A12        1.90689  -0.00712   0.00000  -0.04131  -0.04089   1.86600
   A13        1.88815  -0.00586   0.00000  -0.03576  -0.03576   1.85239
    D1        1.03895   0.00340   0.00000   0.04237   0.04175   1.08070
    D2        3.12479  -0.00012   0.00000  -0.00408  -0.00424   3.12055
    D3       -1.05979  -0.00115   0.00000  -0.01758  -0.01761  -1.07741
    D4       -3.12649   0.00165   0.00000   0.01183   0.01175  -3.11474
    D5       -1.04065  -0.00187   0.00000  -0.03462  -0.03424  -1.07489
    D6        1.05795  -0.00290   0.00000  -0.04812  -0.04761   1.01034
    D7       -1.04373   0.00287   0.00000   0.03294   0.03260  -1.01114
    D8        1.04211  -0.00065   0.00000  -0.01351  -0.01339   1.02871
    D9        3.14071  -0.00168   0.00000  -0.02701  -0.02676   3.11394
   D10        0.34907   0.00127   0.00000   0.00000   0.00000   0.34907
   D11       -1.76330  -0.00096   0.00000  -0.02983  -0.03142  -1.79472
   D12        2.46119   0.00251   0.00000   0.00080   0.00000   2.46119
         Item               Value     Threshold  Converged?
 Maximum Force            0.017054     0.000450     NO 
 RMS     Force            0.005463     0.000300     NO 
 Maximum Displacement     0.070351     0.001800     NO 
 RMS     Displacement     0.033939     0.001200     NO 
 Predicted change in Energy=-1.936243D-03
 GradGradGradGradGradGradGradGradGradGradGradGradGradGradGradGradGradGrad

                          Input orientation:                          
 ---------------------------------------------------------------------
 Center     Atomic     Atomic              Coordinates (Angstroms)
 Number     Number      Type              X           Y           Z
 ---------------------------------------------------------------------
    1          6             0       -1.767047    1.121780    1.229153
    2          1             0       -1.690568    0.639956    2.219061
    3          1             0       -0.874851    1.750876    1.078226
    4          1             0       -2.652254    1.781084    1.247295
    5          6             0       -1.857087    0.065287    0.135065
    6          1             0       -2.773522   -0.536776    0.289401
    7          1             0       -1.954819    0.556403   -0.846898
    8          8             0       -0.712097   -0.778073    0.064303
    9          1             0       -0.271470   -0.703447    0.917787
 ---------------------------------------------------------------------
                    Distance matrix (angstroms):
                    1          2          3          4          5
     1  C    0.000000
     2  H    1.103595   0.000000
     3  H    1.102068   1.789146   0.000000
     4  H    1.103904   1.780826   1.785681   0.000000
     5  C    1.523585   2.168182   2.166922   2.193925   0.000000
     6  H    2.155675   2.506207   3.075801   2.510925   1.107318
     7  H    2.159837   3.078460   2.509821   2.524263   1.102270
     8  O    2.465611   2.758839   2.729490   3.422421   1.423820
     9  H    2.380157   2.347740   2.532491   3.456820   1.928156
                    6          7          8          9
     6  H    0.000000
     7  H    1.776651   0.000000
     8  O    2.087670   2.038498   0.000000
     9  H    2.585134   2.744995   0.963409   0.000000
 Stoichiometry    C2H6O
 Framework group  C1[X(C2H6O)]
 Deg. of freedom    21
 Full point group                 C1
 Largest Abelian subgroup         C1      NOp   1
 Largest concise Abelian subgroup C1      NOp   1
                         Standard orientation:                         
 ---------------------------------------------------------------------
 Center     Atomic     Atomic              Coordinates (Angstroms)
 Number     Number      Type              X           Y           Z
 ---------------------------------------------------------------------
    1          6             0        1.205807   -0.232408   -0.014514
    2          1             0        1.264873   -0.906305    0.857435
    3          1             0        1.250135   -0.843530   -0.930548
    4          1             0        2.097165    0.418462    0.006775
    5          6             0       -0.091786    0.565159    0.023599
    6          1             0       -0.103358    1.191978    0.936352
    7          1             0       -0.130998    1.250108   -0.839133
    8          8             0       -1.259641   -0.246927   -0.038805
    9          1             0       -0.984819   -1.131808    0.225042
 ---------------------------------------------------------------------
 Rotational constants (GHZ):     34.2441907      9.2559492      8.0488830
 Standard basis: CC-pVDZ (5D, 7F)
 There are    72 symmetry adapted basis functions of A   symmetry.
 Integral buffers will be    131072 words long.
 Raffenetti 1 integral format.
 Two-electron integral symmetry is turned on.
    72 basis functions,   141 primitive gaussians,    75 cartesian basis functions
    13 alpha electrons       13 beta electrons
       nuclear repulsion energy        81.5072950343 Hartrees.
 NAtoms=    9 NActive=    9 NUniq=    9 SFac= 7.50D-01 NAtFMM=   80 NAOKFM=F Big=F
 One-electron integrals computed using PRISM.
 NBasis=    72 RedAO= T  NBF=    72
 NBsUse=    72 1.00D-06 NBFU=    72
 Initial guess read from the read-write file:
 Initial guess orbital symmetries:
       Occupied  (A) (A) (A) (A) (A) (A) (A) (A) (A) (A) (A) (A)
                 (A)
       Virtual   (A) (A) (A) (A) (A) (A) (A) (A) (A) (A) (A) (A)
                 (A) (A) (A) (A) (A) (A) (A) (A) (A) (A) (A) (A)
                 (A) (A) (A) (A) (A) (A) (A) (A) (A) (A) (A) (A)
                 (A) (A) (A) (A) (A) (A) (A) (A) (A) (A) (A) (A)
                 (A) (A) (A) (A) (A) (A) (A) (A) (A) (A) (A)
 Harris functional with IExCor=  205 diagonalized for initial guess.
 ExpMin= 1.22D-01 ExpMax= 1.17D+04 ExpMxC= 4.01D+02 IAcc=1 IRadAn=         1 AccDes= 1.00D-06
 HarFok:  IExCor= 205 AccDes= 1.00D-06 IRadAn=         1 IDoV=1
 ScaDFX=  1.000000  1.000000  1.000000  1.000000
 Requested convergence on RMS density matrix=1.00D-08 within 128 cycles.
 Requested convergence on MAX density matrix=1.00D-06.
 Requested convergence on             energy=1.00D-06.
 No special actions if energy rises.
 Keep R1 integrals in memory in canonical form, NReq=     5139848.
 SCF Done:  E(RHF) =  -154.089187641     A.U. after   10 cycles
             Convg  =    0.4979D-08             -V/T =  2.0014
             S**2   =   0.0000
 ExpMin= 1.22D-01 ExpMax= 1.17D+04 ExpMxC= 4.01D+02 IAcc=1 IRadAn=         1 AccDes= 1.00D-06
 HarFok:  IExCor= 205 AccDes= 1.00D-06 IRadAn=         1 IDoV=1
 ScaDFX=  1.000000  1.000000  1.000000  1.000000
 Range of M.O.s used for correlation:     4    72
 NBasis=    72 NAE=    13 NBE=    13 NFC=     3 NFV=     0
 NROrb=     69 NOA=    10 NOB=    10 NVA=    59 NVB=    59
 Fully direct method using O(ONN) memory.
 JobTyp=1 Pass  1:  I=   4 to  13 NPSUse=  1 ParTrn=F ParDer=F DoDerP=T.
 Spin components of T(2) and E(2):
     alpha-alpha T2 =       0.1745199337D-01 E2=     -0.5682076992D-01
     alpha-beta  T2 =       0.1117498761D+00 E2=     -0.3687560607D+00
     beta-beta   T2 =       0.1745199337D-01 E2=     -0.5682076992D-01
 ANorm=    0.1070819248D+01
 E2 =    -0.4823976005D+00 EUMP2 =    -0.15457158524170D+03
 DoAtom=TTTTTTTTT
          Differentiating once with respect to electric field.
                with respect to dipole field.
          Differentiating once with respect to nuclear coordinates.
          Store integrals in memory, NReq=     4883431.
          There are   1 degrees of freedom in the 1st order CPHF.
     1 vectors were produced by pass  0.
 AX will form   1 AO Fock derivatives at one time.
     1 vectors were produced by pass  1.
     1 vectors were produced by pass  2.
     1 vectors were produced by pass  3.
     1 vectors were produced by pass  4.
     1 vectors were produced by pass  5.
     1 vectors were produced by pass  6.
     1 vectors were produced by pass  7.
     1 vectors were produced by pass  8.
     1 vectors were produced by pass  9.
     1 vectors were produced by pass 10.
     1 vectors were produced by pass 11.
 Inv2:  IOpt= 1 Iter= 1 AM= 2.88D-16 Conv= 1.00D-12.
 Inverted reduced A of dimension   12 with in-core refinement.
 End of Minotr Frequency-dependent properties file   721 does not exist.
 ***** Axes restored to original set *****
 -------------------------------------------------------------------
 Center     Atomic                   Forces (Hartrees/Bohr)
 Number     Number              X              Y              Z
 -------------------------------------------------------------------
    1          6           0.002184426    0.000375998   -0.000006717
    2          1           0.000276546   -0.000003736    0.000933291
    3          1           0.000791595    0.000499633    0.000395740
    4          1           0.000290457   -0.001760885   -0.001335666
    5          6          -0.003148860    0.000709418   -0.000814416
    6          1           0.000074011   -0.001242365    0.000077342
    7          1          -0.000787108    0.000220620   -0.001160208
    8          8           0.000044065    0.003009684   -0.000804886
    9          1           0.000274868   -0.001808366    0.002715520
 -------------------------------------------------------------------
 Cartesian Forces:  Max     0.003148860 RMS     0.001318550

 GradGradGradGradGradGradGradGradGradGradGradGradGradGradGradGradGradGrad
 Berny optimization.
 Internal  Forces:  Max     0.003626178 RMS     0.001250759
 Search for a local minimum.
 Step number   2 out of a maximum of  43
 All quantities printed in internal units (Hartrees-Bohrs-Radians)
 Update second derivatives using D2CorX and points  1  2
 Trust test= 8.03D-01 RLast= 1.55D-01 DXMaxT set to 4.24D-01
     Eigenvalues ---    0.00363   0.04055   0.05435   0.05672   0.05977
     Eigenvalues ---    0.11751   0.12478   0.15682   0.16000   0.16000
     Eigenvalues ---    0.16788   0.24996   0.29206   0.31703   0.32270
     Eigenvalues ---    0.32301   0.32327   0.33299   0.42978   0.55396
     Eigenvalues --- 1000.000001000.000001000.000001000.000001000.00000
     Eigenvalues --- 1000.000001000.000001000.000001000.000001000.00000
     Eigenvalues --- 1000.000001000.000001000.00000
 RFO step:  Lambda=-1.06951080D-04.
 Quartic linear search produced a step of -0.14859.
 Iteration  1 RMS(Cart)=  0.00816320 RMS(Int)=  0.00005529
 Iteration  2 RMS(Cart)=  0.00004293 RMS(Int)=  0.00004424
 Iteration  3 RMS(Cart)=  0.00000000 RMS(Int)=  0.00004424
 Iteration  1 RMS(Cart)=  0.00001606 RMS(Int)=  0.00001493
 Iteration  2 RMS(Cart)=  0.00000788 RMS(Int)=  0.00001669
 Iteration  3 RMS(Cart)=  0.00000387 RMS(Int)=  0.00001862
 Iteration  4 RMS(Cart)=  0.00000190 RMS(Int)=  0.00001974
 Iteration  5 RMS(Cart)=  0.00000093 RMS(Int)=  0.00002033
 Variable       Old X    -DE/DX   Delta X   Delta X   Delta X     New X
                                 (Linear)    (Quad)   (Total)
    R1        2.08549   0.00086   0.00268  -0.00097   0.00171   2.08721
    R2        2.08261   0.00087   0.00311  -0.00145   0.00166   2.08427
    R3        2.08608  -0.00131   0.00253  -0.00648  -0.00396   2.08212
    R4        2.87916  -0.00042   0.00194  -0.00355  -0.00161   2.87755
    R5        2.09253   0.00063   0.00148  -0.00014   0.00134   2.09387
    R6        2.08299   0.00120   0.00290  -0.00033   0.00257   2.08556
    R7        2.69063  -0.00055  -0.00197   0.00129  -0.00069   2.68994
    R8        1.82058   0.00239  -0.00433   0.00871   0.00438   1.82496
    A1        1.89227  -0.00064  -0.00079   0.00027  -0.00043   1.89184
    A2        1.87715   0.00077  -0.00110   0.00354   0.00241   1.87956
    A3        1.92354   0.00095   0.00405   0.00062   0.00470   1.92824
    A4        1.88652   0.00088  -0.00248   0.00674   0.00425   1.89076
    A5        1.92339   0.00099   0.00408   0.00130   0.00542   1.92881
    A6        1.95904  -0.00290  -0.00405  -0.01199  -0.01606   1.94298
    A7        1.90270   0.00220   0.00394  -0.00037   0.00373   1.90643
    A8        1.91347   0.00044   0.00231   0.00632   0.00857   1.92204
    A9        1.98111  -0.00363  -0.01107  -0.00198  -0.01303   1.96808
   A10        1.86820  -0.00057   0.00249  -0.00163   0.00092   1.86911
   A11        1.92881   0.00012  -0.00325  -0.00454  -0.00777   1.92104
   A12        1.86600   0.00155   0.00608   0.00237   0.00843   1.87443
   A13        1.85239   0.00093   0.00531  -0.00146   0.00386   1.85625
    D1        1.08070  -0.00076  -0.00620  -0.00693  -0.01306   1.06764
    D2        3.12055   0.00006   0.00063  -0.00552  -0.00486   3.11569
    D3       -1.07741  -0.00003   0.00262   0.00063   0.00325  -1.07416
    D4       -3.11474  -0.00034  -0.00175  -0.00538  -0.00712  -3.12187
    D5       -1.07489   0.00049   0.00509  -0.00397   0.00109  -1.07381
    D6        1.01034   0.00040   0.00708   0.00218   0.00919   1.01952
    D7       -1.01114  -0.00048  -0.00484  -0.00393  -0.00874  -1.01988
    D8        1.02871   0.00035   0.00199  -0.00252  -0.00053   1.02818
    D9        3.11394   0.00026   0.00398   0.00363   0.00757   3.12151
   D10        0.34907   0.00159   0.00000   0.00000  -0.00001   0.34906
   D11       -1.79472   0.00124   0.00467   0.00537   0.01018  -1.78454
   D12        2.46119   0.00098   0.00000   0.00833   0.00843   2.46961
         Item               Value     Threshold  Converged?
 Maximum Force            0.003650     0.000450     NO 
 RMS     Force            0.001208     0.000300     NO 
 Maximum Displacement     0.019037     0.001800     NO 
 RMS     Displacement     0.008185     0.001200     NO 
 Predicted change in Energy=-1.006585D-04
 GradGradGradGradGradGradGradGradGradGradGradGradGradGradGradGradGradGrad

                          Input orientation:                          
 ---------------------------------------------------------------------
 Center     Atomic     Atomic              Coordinates (Angstroms)
 Number     Number      Type              X           Y           Z
 ---------------------------------------------------------------------
    1          6             0       -1.761448    1.119753    1.229154
    2          1             0       -1.684928    0.636675    2.219459
    3          1             0       -0.870059    1.752080    1.080557
    4          1             0       -2.650087    1.771010    1.242072
    5          6             0       -1.860170    0.070017    0.130503
    6          1             0       -2.772210   -0.539022    0.288554
    7          1             0       -1.963059    0.558840   -0.853602
    8          8             0       -0.714610   -0.772712    0.069425
    9          1             0       -0.277144   -0.699553    0.927270
 ---------------------------------------------------------------------
                    Distance matrix (angstroms):
                    1          2          3          4          5
     1  C    0.000000
     2  H    1.104502   0.000000
     3  H    1.102947   1.790318   0.000000
     4  H    1.101809   1.781441   1.787441   0.000000
     5  C    1.522736   2.171531   2.170773   2.180122   0.000000
     6  H    2.158218   2.508554   3.081330   2.502071   1.108028
     7  H    2.166366   3.086603   2.521793   2.516588   1.103629
     8  O    2.454030   2.747824   2.724174   3.404658   1.423457
     9  H    2.367312   2.331762   2.526964   3.440006   1.932109
                    6          7          8          9
     6  H    0.000000
     7  H    1.778918   0.000000
     8  O    2.082390   2.045393   0.000000
     9  H    2.580520   2.756332   0.965727   0.000000
 Stoichiometry    C2H6O
 Framework group  C1[X(C2H6O)]
 Deg. of freedom    21
 Full point group                 C1
 Largest Abelian subgroup         C1      NOp   1
 Largest concise Abelian subgroup C1      NOp   1
                         Standard orientation:                         
 ---------------------------------------------------------------------
 Center     Atomic     Atomic              Coordinates (Angstroms)
 Number     Number      Type              X           Y           Z
 ---------------------------------------------------------------------
    1          6             0        1.200494   -0.234165   -0.014934
    2          1             0        1.259022   -0.912563    0.854706
    3          1             0        1.250898   -0.841561   -0.934185
    4          1             0        2.083347    0.424399    0.014140
    5          6             0       -0.091873    0.570250    0.022902
    6          1             0       -0.111111    1.186896    0.943284
    7          1             0       -0.132027    1.264830   -0.833803
    8          8             0       -1.253359   -0.250279   -0.039642
    9          1             0       -0.974982   -1.136281    0.225188
 ---------------------------------------------------------------------
 Rotational constants (GHZ):     33.8744833      9.3387756      8.0923660
 Standard basis: CC-pVDZ (5D, 7F)
 There are    72 symmetry adapted basis functions of A   symmetry.
 Integral buffers will be    131072 words long.
 Raffenetti 1 integral format.
 Two-electron integral symmetry is turned on.
    72 basis functions,   141 primitive gaussians,    75 cartesian basis functions
    13 alpha electrons       13 beta electrons
       nuclear repulsion energy        81.5688784061 Hartrees.
 NAtoms=    9 NActive=    9 NUniq=    9 SFac= 7.50D-01 NAtFMM=   80 NAOKFM=F Big=F
 One-electron integrals computed using PRISM.
 NBasis=    72 RedAO= T  NBF=    72
 NBsUse=    72 1.00D-06 NBFU=    72
 Initial guess read from the read-write file:
 Initial guess orbital symmetries:
       Occupied  (A) (A) (A) (A) (A) (A) (A) (A) (A) (A) (A) (A)
                 (A)
       Virtual   (A) (A) (A) (A) (A) (A) (A) (A) (A) (A) (A) (A)
                 (A) (A) (A) (A) (A) (A) (A) (A) (A) (A) (A) (A)
                 (A) (A) (A) (A) (A) (A) (A) (A) (A) (A) (A) (A)
                 (A) (A) (A) (A) (A) (A) (A) (A) (A) (A) (A) (A)
                 (A) (A) (A) (A) (A) (A) (A) (A) (A) (A) (A)
 Requested convergence on RMS density matrix=1.00D-08 within 128 cycles.
 Requested convergence on MAX density matrix=1.00D-06.
 Requested convergence on             energy=1.00D-06.
 No special actions if energy rises.
 Keep R1 integrals in memory in canonical form, NReq=     5139848.
 SCF Done:  E(RHF) =  -154.089294730     A.U. after    9 cycles
             Convg  =    0.4973D-08             -V/T =  2.0015
             S**2   =   0.0000
 ExpMin= 1.22D-01 ExpMax= 1.17D+04 ExpMxC= 4.01D+02 IAcc=1 IRadAn=         1 AccDes= 1.00D-06
 HarFok:  IExCor= 205 AccDes= 1.00D-06 IRadAn=         1 IDoV=1
 ScaDFX=  1.000000  1.000000  1.000000  1.000000
 Range of M.O.s used for correlation:     4    72
 NBasis=    72 NAE=    13 NBE=    13 NFC=     3 NFV=     0
 NROrb=     69 NOA=    10 NOB=    10 NVA=    59 NVB=    59
 Fully direct method using O(ONN) memory.
 JobTyp=1 Pass  1:  I=   4 to  13 NPSUse=  1 ParTrn=F ParDer=F DoDerP=T.
 Spin components of T(2) and E(2):
     alpha-alpha T2 =       0.1744782370D-01 E2=     -0.5681432954D-01
     alpha-beta  T2 =       0.1117523156D+00 E2=     -0.3687621502D+00
     beta-beta   T2 =       0.1744782370D-01 E2=     -0.5681432954D-01
 ANorm=    0.1070816494D+01
 E2 =    -0.4823908093D+00 EUMP2 =    -0.15457168553974D+03
 DoAtom=TTTTTTTTT
          Differentiating once with respect to electric field.
                with respect to dipole field.
          Differentiating once with respect to nuclear coordinates.
          Store integrals in memory, NReq=     4883431.
          There are   1 degrees of freedom in the 1st order CPHF.
     1 vectors were produced by pass  0.
 AX will form   1 AO Fock derivatives at one time.
     1 vectors were produced by pass  1.
     1 vectors were produced by pass  2.
     1 vectors were produced by pass  3.
     1 vectors were produced by pass  4.
     1 vectors were produced by pass  5.
     1 vectors were produced by pass  6.
     1 vectors were produced by pass  7.
     1 vectors were produced by pass  8.
     1 vectors were produced by pass  9.
     1 vectors were produced by pass 10.
     1 vectors were produced by pass 11.
 Inv2:  IOpt= 1 Iter= 1 AM= 6.19D-16 Conv= 1.00D-12.
 Inverted reduced A of dimension   12 with in-core refinement.
 End of Minotr Frequency-dependent properties file   721 does not exist.
 ***** Axes restored to original set *****
 -------------------------------------------------------------------
 Center     Atomic                   Forces (Hartrees/Bohr)
 Number     Number              X              Y              Z
 -------------------------------------------------------------------
    1          6           0.000854760    0.001014029   -0.000746727
    2          1           0.000054791   -0.000110506    0.000005976
    3          1           0.000126850   -0.000006566    0.000044051
    4          1          -0.000358230    0.000119763   -0.000100360
    5          6          -0.001360014   -0.001401568    0.001595608
    6          1          -0.000202579   -0.000069265   -0.000007355
    7          1           0.000079163   -0.000038210   -0.000129353
    8          8           0.002117926    0.002071770   -0.001070144
    9          1          -0.001312668   -0.001579448    0.000408304
 -------------------------------------------------------------------
 Cartesian Forces:  Max     0.002117926 RMS     0.000927769

 GradGradGradGradGradGradGradGradGradGradGradGradGradGradGradGradGradGrad
 Berny optimization.
 Internal  Forces:  Max     0.001848180 RMS     0.000471782
 Search for a local minimum.
 Step number   3 out of a maximum of  43
 All quantities printed in internal units (Hartrees-Bohrs-Radians)
 Update second derivatives using D2CorX and points  1  2  3
 Trust test= 9.96D-01 RLast= 3.79D-02 DXMaxT set to 4.24D-01
     Eigenvalues ---    0.00362   0.04185   0.05507   0.05644   0.05930
     Eigenvalues ---    0.11618   0.12436   0.15250   0.15996   0.16002
     Eigenvalues ---    0.16645   0.24711   0.29396   0.32088   0.32270
     Eigenvalues ---    0.32308   0.32312   0.33297   0.43208   0.56813
     Eigenvalues --- 1000.000001000.000001000.000001000.000001000.00000
     Eigenvalues --- 1000.000001000.000001000.000001000.000001000.00000
     Eigenvalues --- 1000.000001000.000001000.00000
 RFO step:  Lambda=-2.46243538D-06.
 Quartic linear search produced a step of -0.01471.
 Iteration  1 RMS(Cart)=  0.00109070 RMS(Int)=  0.00000088
 Iteration  2 RMS(Cart)=  0.00000088 RMS(Int)=  0.00000042
 Iteration  1 RMS(Cart)=  0.00000057 RMS(Int)=  0.00000053
 Variable       Old X    -DE/DX   Delta X   Delta X   Delta X     New X
                                 (Linear)    (Quad)   (Total)
    R1        2.08721   0.00006  -0.00003   0.00023   0.00021   2.08741
    R2        2.08427   0.00009  -0.00002   0.00034   0.00032   2.08458
    R3        2.08212   0.00036   0.00006   0.00098   0.00104   2.08316
    R4        2.87755   0.00017   0.00002   0.00053   0.00055   2.87810
    R5        2.09387   0.00020  -0.00002   0.00066   0.00064   2.09451
    R6        2.08556   0.00009  -0.00004   0.00036   0.00032   2.08588
    R7        2.68994   0.00038   0.00001   0.00086   0.00087   2.69081
    R8        1.82496  -0.00035  -0.00006  -0.00048  -0.00055   1.82441
    A1        1.89184   0.00000   0.00001  -0.00024  -0.00024   1.89160
    A2        1.87956   0.00014  -0.00004   0.00076   0.00072   1.88029
    A3        1.92824  -0.00012  -0.00007  -0.00081  -0.00088   1.92736
    A4        1.89076   0.00011  -0.00006   0.00121   0.00114   1.89191
    A5        1.92881   0.00007  -0.00008   0.00067   0.00059   1.92940
    A6        1.94298  -0.00019   0.00024  -0.00152  -0.00128   1.94169
    A7        1.90643   0.00074  -0.00005   0.00042   0.00037   1.90680
    A8        1.92204  -0.00070  -0.00013   0.00054   0.00041   1.92245
    A9        1.96808   0.00006   0.00019  -0.00022  -0.00003   1.96805
   A10        1.86911  -0.00002  -0.00001  -0.00010  -0.00011   1.86900
   A11        1.92104   0.00002   0.00011   0.00062   0.00073   1.92178
   A12        1.87443  -0.00012  -0.00012  -0.00128  -0.00140   1.87303
   A13        1.85625  -0.00008  -0.00006  -0.00034  -0.00039   1.85585
    D1        1.06764   0.00020   0.00019  -0.00119  -0.00100   1.06663
    D2        3.11569   0.00020   0.00007  -0.00075  -0.00068   3.11502
    D3       -1.07416  -0.00040  -0.00005  -0.00214  -0.00219  -1.07635
    D4       -3.12187   0.00016   0.00010  -0.00159  -0.00148  -3.12335
    D5       -1.07381   0.00017  -0.00002  -0.00114  -0.00116  -1.07496
    D6        1.01952  -0.00043  -0.00014  -0.00253  -0.00267   1.01686
    D7       -1.01988   0.00022   0.00013  -0.00062  -0.00049  -1.02037
    D8        1.02818   0.00023   0.00001  -0.00017  -0.00017   1.02802
    D9        3.12151  -0.00038  -0.00011  -0.00157  -0.00168   3.11984
   D10        0.34906   0.00185   0.00000   0.00000   0.00000   0.34906
   D11       -1.78454   0.00084  -0.00015  -0.00084  -0.00099  -1.78553
   D12        2.46961   0.00092  -0.00012  -0.00033  -0.00046   2.46916
         Item               Value     Threshold  Converged?
 Maximum Force            0.000385     0.000450     YES
 RMS     Force            0.000141     0.000300     YES
 Maximum Displacement     0.002454     0.001800     NO 
 RMS     Displacement     0.001091     0.001200     YES
 Predicted change in Energy=-1.261593D-06
 GradGradGradGradGradGradGradGradGradGradGradGradGradGradGradGradGradGrad

                          Input orientation:                          
 ---------------------------------------------------------------------
 Center     Atomic     Atomic              Coordinates (Angstroms)
 Number     Number      Type              X           Y           Z
 ---------------------------------------------------------------------
    1          6             0       -1.761261    1.120118    1.229448
    2          1             0       -1.685814    0.636426    2.219658
    3          1             0       -0.868862    1.751546    1.081855
    4          1             0       -2.650427    1.771617    1.240895
    5          6             0       -1.860564    0.069852    0.130952
    6          1             0       -2.772986   -0.539216    0.289073
    7          1             0       -1.963141    0.558054   -0.853685
    8          8             0       -0.714260   -0.772571    0.068967
    9          1             0       -0.276400   -0.698736    0.926230
 ---------------------------------------------------------------------
                    Distance matrix (angstroms):
                    1          2          3          4          5
     1  C    0.000000
     2  H    1.104611   0.000000
     3  H    1.103114   1.790390   0.000000
     4  H    1.102360   1.782445   1.788762   0.000000
     5  C    1.523027   2.171229   2.171586   2.179876   0.000000
     6  H    2.159000   2.508233   3.082496   2.502186   1.108368
     7  H    2.167052   3.086825   2.523527   2.516418   1.103799
     8  O    2.454628   2.748574   2.724153   3.405150   1.423915
     9  H    2.367484   2.332823   2.525691   3.440590   1.932038
                    6          7          8          9
     6  H    0.000000
     7  H    1.779255   0.000000
     8  O    2.083568   2.044885   0.000000
     9  H    2.581541   2.755488   0.965438   0.000000
 Stoichiometry    C2H6O
 Framework group  C1[X(C2H6O)]
 Deg. of freedom    21
 Full point group                 C1
 Largest Abelian subgroup         C1      NOp   1
 Largest concise Abelian subgroup C1      NOp   1
                         Standard orientation:                         
 ---------------------------------------------------------------------
 Center     Atomic     Atomic              Coordinates (Angstroms)
 Number     Number      Type              X           Y           Z
 ---------------------------------------------------------------------
    1          6             0        1.200803   -0.234392   -0.014997
    2          1             0        1.259512   -0.910739    0.856366
    3          1             0        1.250376   -0.844387   -0.932771
    4          1             0        2.083336    0.425603    0.012201
    5          6             0       -0.091702    0.570352    0.022804
    6          1             0       -0.110587    1.188457    0.942624
    7          1             0       -0.132974    1.263918   -0.834888
    8          8             0       -1.253651   -0.250337   -0.039481
    9          1             0       -0.975064   -1.135921    0.225476
 ---------------------------------------------------------------------
 Rotational constants (GHZ):     33.8588964      9.3351329      8.0889138
 Standard basis: CC-pVDZ (5D, 7F)
 There are    72 symmetry adapted basis functions of A   symmetry.
 Integral buffers will be    131072 words long.
 Raffenetti 1 integral format.
 Two-electron integral symmetry is turned on.
    72 basis functions,   141 primitive gaussians,    75 cartesian basis functions
    13 alpha electrons       13 beta electrons
       nuclear repulsion energy        81.5529288984 Hartrees.
 NAtoms=    9 NActive=    9 NUniq=    9 SFac= 7.50D-01 NAtFMM=   80 NAOKFM=F Big=F
 One-electron integrals computed using PRISM.
 NBasis=    72 RedAO= T  NBF=    72
 NBsUse=    72 1.00D-06 NBFU=    72
 Initial guess read from the read-write file:
 Initial guess orbital symmetries:
       Occupied  (A) (A) (A) (A) (A) (A) (A) (A) (A) (A) (A) (A)
                 (A)
       Virtual   (A) (A) (A) (A) (A) (A) (A) (A) (A) (A) (A) (A)
                 (A) (A) (A) (A) (A) (A) (A) (A) (A) (A) (A) (A)
                 (A) (A) (A) (A) (A) (A) (A) (A) (A) (A) (A) (A)
                 (A) (A) (A) (A) (A) (A) (A) (A) (A) (A) (A) (A)
                 (A) (A) (A) (A) (A) (A) (A) (A) (A) (A) (A)
 Requested convergence on RMS density matrix=1.00D-08 within 128 cycles.
 Requested convergence on MAX density matrix=1.00D-06.
 Requested convergence on             energy=1.00D-06.
 No special actions if energy rises.
 Keep R1 integrals in memory in canonical form, NReq=     5139848.
 SCF Done:  E(RHF) =  -154.089271386     A.U. after    8 cycles
             Convg  =    0.6805D-08             -V/T =  2.0015
             S**2   =   0.0000
 ExpMin= 1.22D-01 ExpMax= 1.17D+04 ExpMxC= 4.01D+02 IAcc=1 IRadAn=         1 AccDes= 1.00D-06
 HarFok:  IExCor= 205 AccDes= 1.00D-06 IRadAn=         1 IDoV=1
 ScaDFX=  1.000000  1.000000  1.000000  1.000000
 Range of M.O.s used for correlation:     4    72
 NBasis=    72 NAE=    13 NBE=    13 NFC=     3 NFV=     0
 NROrb=     69 NOA=    10 NOB=    10 NVA=    59 NVB=    59
 Fully direct method using O(ONN) memory.
 JobTyp=1 Pass  1:  I=   4 to  13 NPSUse=  1 ParTrn=F ParDer=F DoDerP=T.
 Spin components of T(2) and E(2):
     alpha-alpha T2 =       0.1745041815D-01 E2=     -0.5681402526D-01
     alpha-beta  T2 =       0.1117810662D+00 E2=     -0.3687873362D+00
     beta-beta   T2 =       0.1745041815D-01 E2=     -0.5681402526D-01
 ANorm=    0.1070832341D+01
 E2 =    -0.4824153867D+00 EUMP2 =    -0.15457168677269D+03
 DoAtom=TTTTTTTTT
          Differentiating once with respect to electric field.
                with respect to dipole field.
          Differentiating once with respect to nuclear coordinates.
          Store integrals in memory, NReq=     4883431.
          There are   1 degrees of freedom in the 1st order CPHF.
     1 vectors were produced by pass  0.
 AX will form   1 AO Fock derivatives at one time.
     1 vectors were produced by pass  1.
     1 vectors were produced by pass  2.
     1 vectors were produced by pass  3.
     1 vectors were produced by pass  4.
     1 vectors were produced by pass  5.
     1 vectors were produced by pass  6.
     1 vectors were produced by pass  7.
     1 vectors were produced by pass  8.
     1 vectors were produced by pass  9.
     1 vectors were produced by pass 10.
     1 vectors were produced by pass 11.
 Inv2:  IOpt= 1 Iter= 1 AM= 3.10D-16 Conv= 1.00D-12.
 Inverted reduced A of dimension   12 with in-core refinement.
 End of Minotr Frequency-dependent properties file   721 does not exist.
 ***** Axes restored to original set *****
 -------------------------------------------------------------------
 Center     Atomic                   Forces (Hartrees/Bohr)
 Number     Number              X              Y              Z
 -------------------------------------------------------------------
    1          6           0.000559731    0.000925482   -0.000825120
    2          1           0.000006582   -0.000007676   -0.000020764
    3          1          -0.000030702   -0.000042036   -0.000017293
    4          1           0.000010340   -0.000025187   -0.000007287
    5          6          -0.001112417   -0.001403493    0.001346054
    6          1           0.000040647    0.000014840    0.000021891
    7          1          -0.000008445   -0.000014564    0.000010351
    8          8           0.001692967    0.002144841   -0.001191452
    9          1          -0.001158702   -0.001592205    0.000683620
 -------------------------------------------------------------------
 Cartesian Forces:  Max     0.002144841 RMS     0.000862982

 GradGradGradGradGradGradGradGradGradGradGradGradGradGradGradGradGradGrad
 Berny optimization.
 Internal  Forces:  Max     0.001835101 RMS     0.000448706
 Search for a local minimum.
 Step number   4 out of a maximum of  43
 All quantities printed in internal units (Hartrees-Bohrs-Radians)
 Update second derivatives using D2CorX and points  1  2  3  4
 Trust test= 9.77D-01 RLast= 5.65D-03 DXMaxT set to 4.24D-01
     Eigenvalues ---    0.00372   0.04520   0.05560   0.05639   0.05935
     Eigenvalues ---    0.11496   0.12347   0.14168   0.15992   0.16223
     Eigenvalues ---    0.16693   0.24985   0.29387   0.32120   0.32206
     Eigenvalues ---    0.32292   0.33208   0.34167   0.40576   0.55491
     Eigenvalues --- 1000.000001000.000001000.000001000.000001000.00000
     Eigenvalues --- 1000.000001000.000001000.000001000.000001000.00000
     Eigenvalues --- 1000.000001000.000001000.00000
 RFO step:  Lambda=-1.69881864D-07.
 Quartic linear search produced a step of -0.01870.
 Iteration  1 RMS(Cart)=  0.00045927 RMS(Int)=  0.00000013
 Iteration  2 RMS(Cart)=  0.00000014 RMS(Int)=  0.00000002
 Iteration  1 RMS(Cart)=  0.00000028 RMS(Int)=  0.00000026
 Variable       Old X    -DE/DX   Delta X   Delta X   Delta X     New X
                                 (Linear)    (Quad)   (Total)
    R1        2.08741  -0.00001   0.00000  -0.00003  -0.00003   2.08738
    R2        2.08458  -0.00005  -0.00001  -0.00012  -0.00012   2.08446
    R3        2.08316  -0.00002  -0.00002   0.00001  -0.00001   2.08314
    R4        2.87810  -0.00001  -0.00001   0.00002   0.00001   2.87811
    R5        2.09451  -0.00004  -0.00001  -0.00006  -0.00007   2.09444
    R6        2.08588  -0.00001  -0.00001  -0.00002  -0.00002   2.08586
    R7        2.69081   0.00013  -0.00002   0.00037   0.00035   2.69116
    R8        1.82441  -0.00004   0.00001  -0.00009  -0.00008   1.82433
    A1        1.89160   0.00002   0.00000   0.00006   0.00007   1.89167
    A2        1.88029   0.00002  -0.00001   0.00021   0.00020   1.88048
    A3        1.92736  -0.00001   0.00002  -0.00017  -0.00015   1.92721
    A4        1.89191   0.00002  -0.00002   0.00029   0.00026   1.89217
    A5        1.92940  -0.00004  -0.00001  -0.00018  -0.00019   1.92921
    A6        1.94169  -0.00001   0.00002  -0.00018  -0.00016   1.94153
    A7        1.90680   0.00072  -0.00001  -0.00031  -0.00032   1.90648
    A8        1.92245  -0.00078  -0.00001   0.00027   0.00026   1.92272
    A9        1.96805   0.00007   0.00000   0.00020   0.00020   1.96825
   A10        1.86900   0.00001   0.00000   0.00004   0.00004   1.86904
   A11        1.92178  -0.00006  -0.00001  -0.00029  -0.00031   1.92147
   A12        1.87303   0.00001   0.00003   0.00010   0.00013   1.87316
   A13        1.85585  -0.00002   0.00001  -0.00015  -0.00014   1.85571
    D1        1.06663   0.00018   0.00002   0.00058   0.00060   1.06724
    D2        3.11502   0.00016   0.00001   0.00060   0.00062   3.11563
    D3       -1.07635  -0.00032   0.00004   0.00105   0.00109  -1.07526
    D4       -3.12335   0.00017   0.00003   0.00044   0.00046  -3.12288
    D5       -1.07496   0.00016   0.00002   0.00046   0.00048  -1.07449
    D6        1.01686  -0.00032   0.00005   0.00090   0.00095   1.01781
    D7       -1.02037   0.00017   0.00001   0.00055   0.00056  -1.01981
    D8        1.02802   0.00016   0.00000   0.00057   0.00057   1.02859
    D9        3.11984  -0.00032   0.00003   0.00102   0.00105   3.12088
   D10        0.34906   0.00184   0.00000   0.00000   0.00000   0.34906
   D11       -1.78553   0.00090   0.00002   0.00048   0.00050  -1.78503
   D12        2.46916   0.00092   0.00001   0.00053   0.00054   2.46970
         Item               Value     Threshold  Converged?
 Maximum Force            0.000125     0.000450     YES
 RMS     Force            0.000031     0.000300     YES
 Maximum Displacement     0.001063     0.001800     YES
 RMS     Displacement     0.000459     0.001200     YES
 Predicted change in Energy=-9.065282D-08
 Optimization completed.
    -- Stationary point found.
                           ----------------------------
                           !   Optimized Parameters   !
                           ! (Angstroms and Degrees)  !
 --------------------------                            --------------------------
 ! Name  Definition              Value          Derivative Info.                !
 --------------------------------------------------------------------------------
 ! R1    R(1,2)                  1.1046         -DE/DX =    0.0                 !
 ! R2    R(1,3)                  1.1031         -DE/DX =    0.0                 !
 ! R3    R(1,4)                  1.1024         -DE/DX =    0.0                 !
 ! R4    R(1,5)                  1.523          -DE/DX =    0.0                 !
 ! R5    R(5,6)                  1.1084         -DE/DX =    0.0                 !
 ! R6    R(5,7)                  1.1038         -DE/DX =    0.0                 !
 ! R7    R(5,8)                  1.4239         -DE/DX =    0.0001              !
 ! R8    R(8,9)                  0.9654         -DE/DX =    0.0                 !
 ! A1    A(2,1,3)              108.3808         -DE/DX =    0.0                 !
 ! A2    A(2,1,4)              107.7326         -DE/DX =    0.0                 !
 ! A3    A(2,1,5)              110.4294         -DE/DX =    0.0                 !
 ! A4    A(3,1,4)              108.3984         -DE/DX =    0.0                 !
 ! A5    A(3,1,5)              110.5467         -DE/DX =    0.0                 !
 ! A6    A(4,1,5)              111.2507         -DE/DX =    0.0                 !
 ! A7    A(1,5,6)              109.2519         -DE/DX =    0.0007              !
 ! A8    A(1,5,7)              110.1484         -DE/DX =   -0.0008              !
 ! A9    A(1,5,8)              112.7609         -DE/DX =    0.0001              !
 ! A10   A(6,5,7)              107.0859         -DE/DX =    0.0                 !
 ! A11   A(6,5,8)              110.1097         -DE/DX =   -0.0001              !
 ! A12   A(7,5,8)              107.3167         -DE/DX =    0.0                 !
 ! A13   A(5,8,9)              106.3326         -DE/DX =    0.0                 !
 ! D1    D(2,1,5,6)             61.1137         -DE/DX =    0.0002              !
 ! D2    D(2,1,5,7)            178.4774         -DE/DX =    0.0002              !
 ! D3    D(2,1,5,8)            -61.6701         -DE/DX =   -0.0003              !
 ! D4    D(3,1,5,6)           -178.9547         -DE/DX =    0.0002              !
 ! D5    D(3,1,5,7)            -61.5909         -DE/DX =    0.0002              !
 ! D6    D(3,1,5,8)             58.2615         -DE/DX =   -0.0003              !
 ! D7    D(4,1,5,6)            -58.4628         -DE/DX =    0.0002              !
 ! D8    D(4,1,5,7)             58.901          -DE/DX =    0.0002              !
 ! D9    D(4,1,5,8)            178.7534         -DE/DX =   -0.0003              !
 ! D10   D(1,5,8,9)             19.9999         -DE/DX =    0.0018              !
 ! D11   D(6,5,8,9)           -102.3031         -DE/DX =    0.0009              !
 ! D12   D(7,5,8,9)            141.4723         -DE/DX =    0.0009              !
 --------------------------------------------------------------------------------
 GradGradGradGradGradGradGradGradGradGradGradGradGradGradGradGradGradGrad

                          Input orientation:                          
 ---------------------------------------------------------------------
 Center     Atomic     Atomic              Coordinates (Angstroms)
 Number     Number      Type              X           Y           Z
 ---------------------------------------------------------------------
    1          6             0       -1.761261    1.120118    1.229448
    2          1             0       -1.685814    0.636426    2.219658
    3          1             0       -0.868862    1.751546    1.081855
    4          1             0       -2.650427    1.771617    1.240895
    5          6             0       -1.860564    0.069852    0.130952
    6          1             0       -2.772986   -0.539216    0.289073
    7          1             0       -1.963141    0.558054   -0.853685
    8          8             0       -0.714260   -0.772571    0.068967
    9          1             0       -0.276400   -0.698736    0.926230
 ---------------------------------------------------------------------
                    Distance matrix (angstroms):
                    1          2          3          4          5
     1  C    0.000000
     2  H    1.104611   0.000000
     3  H    1.103114   1.790390   0.000000
     4  H    1.102360   1.782445   1.788762   0.000000
     5  C    1.523027   2.171229   2.171586   2.179876   0.000000
     6  H    2.159000   2.508233   3.082496   2.502186   1.108368
     7  H    2.167052   3.086825   2.523527   2.516418   1.103799
     8  O    2.454628   2.748574   2.724153   3.405150   1.423915
     9  H    2.367484   2.332823   2.525691   3.440590   1.932038
                    6          7          8          9
     6  H    0.000000
     7  H    1.779255   0.000000
     8  O    2.083568   2.044885   0.000000
     9  H    2.581541   2.755488   0.965438   0.000000
 Stoichiometry    C2H6O
 Framework group  C1[X(C2H6O)]
 Deg. of freedom    21
 Full point group                 C1
 Largest Abelian subgroup         C1      NOp   1
 Largest concise Abelian subgroup C1      NOp   1
                         Standard orientation:                         
 ---------------------------------------------------------------------
 Center     Atomic     Atomic              Coordinates (Angstroms)
 Number     Number      Type              X           Y           Z
 ---------------------------------------------------------------------
    1          6             0        1.200803   -0.234392   -0.014997
    2          1             0        1.259512   -0.910739    0.856366
    3          1             0        1.250376   -0.844387   -0.932771
    4          1             0        2.083336    0.425603    0.012201
    5          6             0       -0.091702    0.570352    0.022804
    6          1             0       -0.110587    1.188457    0.942624
    7          1             0       -0.132974    1.263918   -0.834888
    8          8             0       -1.253651   -0.250337   -0.039481
    9          1             0       -0.975064   -1.135921    0.225476
 ---------------------------------------------------------------------
 Rotational constants (GHZ):     33.8588964      9.3351329      8.0889138

 **********************************************************************

            Population analysis using the SCF density.

 **********************************************************************

 Orbital symmetries:
       Occupied  (A) (A) (A) (A) (A) (A) (A) (A) (A) (A) (A) (A)
                 (A)
       Virtual   (A) (A) (A) (A) (A) (A) (A) (A) (A) (A) (A) (A)
                 (A) (A) (A) (A) (A) (A) (A) (A) (A) (A) (A) (A)
                 (A) (A) (A) (A) (A) (A) (A) (A) (A) (A) (A) (A)
                 (A) (A) (A) (A) (A) (A) (A) (A) (A) (A) (A) (A)
                 (A) (A) (A) (A) (A) (A) (A) (A) (A) (A) (A)
 The electronic state is 1-A.
 Alpha  occ. eigenvalues --  -20.54904 -11.27926 -11.23527  -1.35106  -1.01072
 Alpha  occ. eigenvalues --   -0.84584  -0.65966  -0.63018  -0.61598  -0.53159
 Alpha  occ. eigenvalues --   -0.52441  -0.48261  -0.43311
 Alpha virt. eigenvalues --    0.17945   0.21863   0.23743   0.24459   0.25798
 Alpha virt. eigenvalues --    0.28400   0.37167   0.40754   0.59359   0.61612
 Alpha virt. eigenvalues --    0.66612   0.73486   0.74748   0.81143   0.83880
 Alpha virt. eigenvalues --    0.86319   0.87965   0.88951   0.90094   0.92337
 Alpha virt. eigenvalues --    1.11263   1.13901   1.15907   1.28808   1.33078
 Alpha virt. eigenvalues --    1.40302   1.46028   1.48253   1.50282   1.65088
 Alpha virt. eigenvalues --    1.66778   1.79296   1.84955   1.86629   1.88544
 Alpha virt. eigenvalues --    1.92413   1.92842   1.93593   1.96592   2.00902
 Alpha virt. eigenvalues --    2.08197   2.15394   2.22975   2.29027   2.30365
 Alpha virt. eigenvalues --    2.46528   2.49321   2.50251   2.54204   2.72393
 Alpha virt. eigenvalues --    2.75256   2.79192   2.87329   2.88852   3.32286
 Alpha virt. eigenvalues --    3.39896   3.45237   3.63432   4.10282
          Condensed to atoms (all electrons):
              1          2          3          4          5          6
     1  C    4.598543   0.401952   0.400963   0.395351   0.442031  -0.036110
     2  H    0.401952   0.649332  -0.033163  -0.021638  -0.030303  -0.011109
     3  H    0.400963  -0.033163   0.636825  -0.019538  -0.030441   0.008862
     4  H    0.395351  -0.021638  -0.019538   0.624655  -0.019670  -0.001373
     5  C    0.442031  -0.030303  -0.030441  -0.019670   4.380195   0.403831
     6  H   -0.036110  -0.011109   0.008862  -0.001373   0.403831   0.692410
     7  H   -0.028585   0.007986  -0.010554  -0.003082   0.405828  -0.046822
     8  O   -0.043012  -0.000363   0.002979   0.003365   0.325809  -0.031525
     9  H   -0.009922   0.004867   0.000632   0.000152  -0.053913   0.001898
              7          8          9
     1  C   -0.028585  -0.043012  -0.009922
     2  H    0.007986  -0.000363   0.004867
     3  H   -0.010554   0.002979   0.000632
     4  H   -0.003082   0.003365   0.000152
     5  C    0.405828   0.325809  -0.053913
     6  H   -0.046822  -0.031525   0.001898
     7  H    0.665785  -0.028676   0.006905
     8  O   -0.028676   7.790993   0.366117
     9  H    0.006905   0.366117   0.521803
 Mulliken atomic charges:
              1
     1  C   -0.121210
     2  H    0.032438
     3  H    0.043435
     4  H    0.041779
     5  C    0.176631
     6  H    0.019938
     7  H    0.031215
     8  O   -0.385687
     9  H    0.161461
 Sum of Mulliken charges=   0.00000
 Atomic charges with hydrogens summed into heavy atoms:
              1
     1  C   -0.003559
     2  H    0.000000
     3  H    0.000000
     4  H    0.000000
     5  C    0.227784
     6  H    0.000000
     7  H    0.000000
     8  O   -0.224225
     9  H    0.000000
 Sum of Mulliken charges=   0.00000
 Electronic spatial extent (au):  <R**2>=   194.4579
 Charge=     0.0000 electrons
 Dipole moment (field-independent basis, Debye):
    X=     1.8194    Y=    -0.5357    Z=     0.4264  Tot=     1.9439
 Quadrupole moment (field-independent basis, Debye-Ang):
   XX=   -23.3990   YY=   -17.4813   ZZ=   -19.8529
   XY=     0.9360   XZ=    -0.5083   YZ=    -0.6829
 Traceless Quadrupole moment (field-independent basis, Debye-Ang):
   XX=    -3.1546   YY=     2.7631   ZZ=     0.3915
   XY=     0.9360   XZ=    -0.5083   YZ=    -0.6829
 Octapole moment (field-independent basis, Debye-Ang**2):
  XXX=     0.2946  YYY=    -4.0996  ZZZ=    -0.0473  XYY=    -4.0690
  XXY=    -0.1389  XXZ=     0.5105  XZZ=    -1.5264  YZZ=    -0.5389
  YYZ=     0.5051  XYZ=     0.7017
 Hexadecapole moment (field-independent basis, Debye-Ang**3):
 XXXX=  -162.0718 YYYY=   -54.9225 ZZZZ=   -32.7823 XXXY=     5.1725
 XXXZ=    -0.3751 YYYX=     5.6161 YYYZ=    -1.4276 ZZZX=    -0.2510
 ZZZY=    -0.3346 XXYY=   -32.9733 XXZZ=   -32.2790 YYZZ=   -13.7174
 XXYZ=    -0.7465 YYXZ=    -0.5402 ZZXY=     0.0023
 N-N= 8.155292889837D+01 E-N=-5.248487999825D+02  KE= 1.538618491401D+02

 Test job not archived.
 1\1\GINC-ELF33\FOpt\RMP2-FC\CC-pVDZ\C2H6O1\CJWU\26-Feb-2009\0\\# MP2/c
 c-pvdz opt=modredundant maxdisk=30GB test\\Generated with COMPARE prog
 ram by Chuanjie Wu\\0,1\C,-1.7612608143,1.120117653,1.2294477222\H,-1.
 685814224,0.6364259662,2.2196578608\H,-0.8688621015,1.7515458233,1.081
 8553846\H,-2.6504266381,1.771616561,1.2408948676\C,-1.8605642165,0.069
 8521103,0.1309518673\H,-2.7729862764,-0.5392160573,0.2890731652\H,-1.9
 631412587,0.5580537723,-0.8536852113\O,-0.7142599859,-0.7725713729,0.0
 689674854\H,-0.2764004846,-0.6987364559,0.9262298582\\Version=EM64M-G0
 3RevE.01\State=1-A\HF=-154.0892714\MP2=-154.5716868\RMSD=6.805e-09\RMS
 F=8.630e-04\Thermal=0.\Dipole=-0.1598276,0.3991274,0.5364846\PG=C01 [X
 (C2H6O1)]\\@


 KNOWING HOW CONTENTED, FREE, AND JOYFUL IS LIFE IN
 THE REALMS OF SCIENCE, ONE FERVENTLY WISHES THAT
 MANY WOULD ENTER HER PORTALS.
   --  DMITRI IVANOVICH MENDELEEV
 "FIRST PRINCIPLES OF CHEMISTRY", LONGMANS, GREEN,
 AND CO.  LONDON, 1891
 Job cpu time:  0 days  0 hours  0 minutes 56.0 seconds.
 File lengths (MBytes):  RWF=     13 Int=      0 D2E=      0 Chk=      6 Scr=      1
 Normal termination of Gaussian 03 at Thu Feb 26 18:41:05 2009.
