 Entering Gaussian System, Link 0=g03
 Input=potscan_0.gjf
 Output=potscan_0.log
 Initial command:
 /local/gaussian/g03/bin-macosx/l1.exe /scratch/cjwu/Gau-11019.inp -scrdir=/scratch/cjwu/
 Entering Link 1 = /local/gaussian/g03/bin-macosx/l1.exe PID=     11020.
  
 Copyright (c) 1988,1990,1992,1993,1995,1998,2003,2004,2007, Gaussian, Inc.
                  All Rights Reserved.
  
 This is the Gaussian(R) 03 program.  It is based on the
 the Gaussian(R) 98 system (copyright 1998, Gaussian, Inc.),
 the Gaussian(R) 94 system (copyright 1995, Gaussian, Inc.),
 the Gaussian 92(TM) system (copyright 1992, Gaussian, Inc.),
 the Gaussian 90(TM) system (copyright 1990, Gaussian, Inc.),
 the Gaussian 88(TM) system (copyright 1988, Gaussian, Inc.),
 the Gaussian 86(TM) system (copyright 1986, Carnegie Mellon
 University), and the Gaussian 82(TM) system (copyright 1983,
 Carnegie Mellon University). Gaussian is a federally registered
 trademark of Gaussian, Inc.
  
 This software contains proprietary and confidential information,
 including trade secrets, belonging to Gaussian, Inc.
  
 This software is provided under written license and may be
 used, copied, transmitted, or stored only in accord with that
 written license.
  
 The following legend is applicable only to US Government
 contracts under FAR:
  
                    RESTRICTED RIGHTS LEGEND
  
 Use, reproduction and disclosure by the US Government is
 subject to restrictions as set forth in subparagraphs (a)
 and (c) of the Commercial Computer Software - Restricted
 Rights clause in FAR 52.227-19.
  
 Gaussian, Inc.
 340 Quinnipiac St., Bldg. 40, Wallingford CT 06492
  
  
 ---------------------------------------------------------------
 Warning -- This program may not be used in any manner that
 competes with the business of Gaussian, Inc. or will provide
 assistance to any competitor of Gaussian, Inc.  The licensee
 of this program is prohibited from giving any competitor of
 Gaussian, Inc. access to this program.  By using this program,
 the user acknowledges that Gaussian, Inc. is engaged in the
 business of creating and licensing software in the field of
 computational chemistry and represents and warrants to the
 licensee that it is not a competitor of Gaussian, Inc. and that
 it will not use this program in any manner prohibited above.
 ---------------------------------------------------------------
  

 Cite this work as:
 Gaussian 03, Revision E.01,
 M. J. Frisch, G. W. Trucks, H. B. Schlegel, G. E. Scuseria, 
 M. A. Robb, J. R. Cheeseman, J. A. Montgomery, Jr., T. Vreven, 
 K. N. Kudin, J. C. Burant, J. M. Millam, S. S. Iyengar, J. Tomasi, 
 V. Barone, B. Mennucci, M. Cossi, G. Scalmani, N. Rega, 
 G. A. Petersson, H. Nakatsuji, M. Hada, M. Ehara, K. Toyota, 
 R. Fukuda, J. Hasegawa, M. Ishida, T. Nakajima, Y. Honda, O. Kitao, 
 H. Nakai, M. Klene, X. Li, J. E. Knox, H. P. Hratchian, J. B. Cross, 
 V. Bakken, C. Adamo, J. Jaramillo, R. Gomperts, R. E. Stratmann, 
 O. Yazyev, A. J. Austin, R. Cammi, C. Pomelli, J. W. Ochterski, 
 P. Y. Ayala, K. Morokuma, G. A. Voth, P. Salvador, J. J. Dannenberg, 
 V. G. Zakrzewski, S. Dapprich, A. D. Daniels, M. C. Strain, 
 O. Farkas, D. K. Malick, A. D. Rabuck, K. Raghavachari, 
 J. B. Foresman, J. V. Ortiz, Q. Cui, A. G. Baboul, S. Clifford, 
 J. Cioslowski, B. B. Stefanov, G. Liu, A. Liashenko, P. Piskorz, 
 I. Komaromi, R. L. Martin, D. J. Fox, T. Keith, M. A. Al-Laham, 
 C. Y. Peng, A. Nanayakkara, M. Challacombe, P. M. W. Gill, 
 B. Johnson, W. Chen, M. W. Wong, C. Gonzalez, and J. A. Pople, 
 Gaussian, Inc., Wallingford CT, 2004.
 
 ******************************************
 Gaussian 03:  EM64M-G03RevE.01 11-Sep-2007
                26-Feb-2009 
 ******************************************
 %chk=potscan_0.chk
 %mem=50mw
 ------------------------------------------------
 # MP2/cc-pvdz opt=modredundant maxdisk=30GB test
 ------------------------------------------------
 1/18=120,38=1/1,3;
 2/9=110,17=6,18=5,40=1/2;
 3/5=16,11=9,16=1,25=1,30=1/1,2,3;
 4//1;
 5/5=2,38=5/2;
 8/6=4,10=1/1;
 9/15=2,16=-3/6;
 10/5=1/2;
 6/7=2,8=2,9=2,10=2/1;
 7/12=2/1,2,3,16;
 1/18=20/3(3);
 2/9=110/2;
 6/7=2,8=2,9=2,10=2/1;
 99//99;
 2/9=110/2;
 3/5=16,11=9,16=1,25=1,30=1/1,2,3;
 4/5=5,16=3/1;
 5/5=2,38=5/2;
 8/6=4,10=1/1;
 9/15=2,16=-3/6;
 10/5=1/2;
 7/12=2/1,2,3,16;
 1/18=20/3(-8);
 2/9=110/2;
 6/7=2,8=2,9=2,10=2/1;
 99//99;
 ---------------------------------------------
 Generated with COMPARE program by Chuanjie Wu
 ---------------------------------------------
 Symbolic Z-matrix:
 Charge =  0 Multiplicity = 1
 C                    -1.74598   1.10669   1.22578 
 H                    -1.67596   0.62616   2.22689 
 H                    -0.83658   1.73342   1.08867 
 H                    -2.62423   1.7897    1.24234 
 C                    -1.87464   0.06752   0.10953 
 H                    -2.78574  -0.55558   0.25313 
 H                    -1.96249   0.57676  -0.87604 
 O                    -0.72062  -0.75435   0.10153 
 H                    -0.14344  -0.46061   0.79382 
 
 The following ModRedundant input section has been read:
 D    1    5    8    9 F                                                       

 GradGradGradGradGradGradGradGradGradGradGradGradGradGradGradGradGradGrad
 Berny optimization.
 Initialization pass.
                           ----------------------------
                           !    Initial Parameters    !
                           ! (Angstroms and Degrees)  !
 --------------------------                            --------------------------
 ! Name  Definition              Value          Derivative Info.                !
 --------------------------------------------------------------------------------
 ! R1    R(1,2)                  1.1127         estimate D2E/DX2                !
 ! R2    R(1,3)                  1.1129         estimate D2E/DX2                !
 ! R3    R(1,4)                  1.1127         estimate D2E/DX2                !
 ! R4    R(1,5)                  1.5305         estimate D2E/DX2                !
 ! R5    R(5,6)                  1.1131         estimate D2E/DX2                !
 ! R6    R(5,7)                  1.1128         estimate D2E/DX2                !
 ! R7    R(5,8)                  1.4168         estimate D2E/DX2                !
 ! R8    R(8,9)                  0.948          estimate D2E/DX2                !
 ! A1    A(2,1,3)              107.6158         estimate D2E/DX2                !
 ! A2    A(2,1,4)              107.5406         estimate D2E/DX2                !
 ! A3    A(2,1,5)              111.6087         estimate D2E/DX2                !
 ! A4    A(3,1,4)              107.5248         estimate D2E/DX2                !
 ! A5    A(3,1,5)              111.1733         estimate D2E/DX2                !
 ! A6    A(4,1,5)              111.1786         estimate D2E/DX2                !
 ! A7    A(1,5,6)              110.781          estimate D2E/DX2                !
 ! A8    A(1,5,7)              109.9903         estimate D2E/DX2                !
 ! A9    A(1,5,8)              109.2392         estimate D2E/DX2                !
 ! A10   A(6,5,7)              107.8063         estimate D2E/DX2                !
 ! A11   A(6,5,8)              110.0427         estimate D2E/DX2                !
 ! A12   A(7,5,8)              108.9512         estimate D2E/DX2                !
 ! A13   A(5,8,9)              108.1832         estimate D2E/DX2                !
 ! D1    D(2,1,5,6)             59.8198         estimate D2E/DX2                !
 ! D2    D(2,1,5,7)            178.9041         estimate D2E/DX2                !
 ! D3    D(2,1,5,8)            -61.5589         estimate D2E/DX2                !
 ! D4    D(3,1,5,6)            179.9854         estimate D2E/DX2                !
 ! D5    D(3,1,5,7)            -60.9303         estimate D2E/DX2                !
 ! D6    D(3,1,5,8)             58.6067         estimate D2E/DX2                !
 ! D7    D(4,1,5,6)            -60.2538         estimate D2E/DX2                !
 ! D8    D(4,1,5,7)             58.8305         estimate D2E/DX2                !
 ! D9    D(4,1,5,8)            178.3675         estimate D2E/DX2                !
 ! D10   D(1,5,8,9)              0.0            Frozen                          !
 ! D11   D(6,5,8,9)           -121.8253         estimate D2E/DX2                !
 ! D12   D(7,5,8,9)            120.177          estimate D2E/DX2                !
 --------------------------------------------------------------------------------
 Trust Radius=3.00D-01 FncErr=1.00D-07 GrdErr=1.00D-07
 Number of steps in this run=  43 maximum allowed number of steps= 100.
 GradGradGradGradGradGradGradGradGradGradGradGradGradGradGradGradGradGrad

                          Input orientation:                          
 ---------------------------------------------------------------------
 Center     Atomic     Atomic              Coordinates (Angstroms)
 Number     Number      Type              X           Y           Z
 ---------------------------------------------------------------------
    1          6             0       -1.745979    1.106694    1.225781
    2          1             0       -1.675959    0.626158    2.226893
    3          1             0       -0.836580    1.733422    1.088667
    4          1             0       -2.624230    1.789704    1.242336
    5          6             0       -1.874638    0.067519    0.109528
    6          1             0       -2.785744   -0.555578    0.253129
    7          1             0       -1.962493    0.576760   -0.876039
    8          8             0       -0.720620   -0.754349    0.101531
    9          1             0       -0.143440   -0.460607    0.793816
 ---------------------------------------------------------------------
                    Distance matrix (angstroms):
                    1          2          3          4          5
     1  C    0.000000
     2  H    1.112674   0.000000
     3  H    1.112922   1.796148   0.000000
     4  H    1.112700   1.795107   1.795125   0.000000
     5  C    1.530509   2.198815   2.193516   2.193414   0.000000
     6  H    2.188678   2.554186   3.120398   2.550483   1.113097
     7  H    2.178384   3.116525   2.542758   2.529158   1.112828
     8  O    2.403909   2.708438   2.678972   3.376000   1.416788
     9  H    2.282796   2.362918   2.319729   3.379259   1.934997
                    6          7          8          9
     6  H    0.000000
     7  H    1.798597   0.000000
     8  O    2.080199   2.066336   0.000000
     9  H    2.698728   2.678339   0.947987   0.000000
 Stoichiometry    C2H6O
 Framework group  C1[X(C2H6O)]
 Deg. of freedom    21
 Full point group                 C1
 Largest Abelian subgroup         C1      NOp   1
 Largest concise Abelian subgroup C1      NOp   1
                         Standard orientation:                         
 ---------------------------------------------------------------------
 Center     Atomic     Atomic              Coordinates (Angstroms)
 Number     Number      Type              X           Y           Z
 ---------------------------------------------------------------------
    1          6             0        1.178880   -0.233000    0.000906
    2          1             0        1.255582   -0.869355    0.910418
    3          1             0        1.222872   -0.905081   -0.885077
    4          1             0        2.079544    0.419712   -0.028624
    5          6             0       -0.106413    0.597953    0.001152
    6          1             0       -0.143787    1.267279    0.889741
    7          1             0       -0.146063    1.237599   -0.908610
    8          8             0       -1.224714   -0.271927    0.001108
    9          1             0       -0.905237   -1.164459    0.000935
 ---------------------------------------------------------------------
 Rotational constants (GHZ):     32.2656434      9.6904732      8.2438061
 Standard basis: CC-pVDZ (5D, 7F)
 There are    72 symmetry adapted basis functions of A   symmetry.
 Integral buffers will be    131072 words long.
 Raffenetti 1 integral format.
 Two-electron integral symmetry is turned on.
    72 basis functions,   141 primitive gaussians,    75 cartesian basis functions
    13 alpha electrons       13 beta electrons
       nuclear repulsion energy        81.7850638604 Hartrees.
 NAtoms=    9 NActive=    9 NUniq=    9 SFac= 7.50D-01 NAtFMM=   80 NAOKFM=F Big=F
 One-electron integrals computed using PRISM.
 NBasis=    72 RedAO= T  NBF=    72
 NBsUse=    72 1.00D-06 NBFU=    72
 Harris functional with IExCor=  205 diagonalized for initial guess.
 ExpMin= 1.22D-01 ExpMax= 1.17D+04 ExpMxC= 4.01D+02 IAcc=1 IRadAn=         1 AccDes= 1.00D-06
 HarFok:  IExCor= 205 AccDes= 1.00D-06 IRadAn=         1 IDoV=1
 ScaDFX=  1.000000  1.000000  1.000000  1.000000
 Initial guess orbital symmetries:
       Occupied  (A) (A) (A) (A) (A) (A) (A) (A) (A) (A) (A) (A)
                 (A)
       Virtual   (A) (A) (A) (A) (A) (A) (A) (A) (A) (A) (A) (A)
                 (A) (A) (A) (A) (A) (A) (A) (A) (A) (A) (A) (A)
                 (A) (A) (A) (A) (A) (A) (A) (A) (A) (A) (A) (A)
                 (A) (A) (A) (A) (A) (A) (A) (A) (A) (A) (A) (A)
                 (A) (A) (A) (A) (A) (A) (A) (A) (A) (A) (A)
 The electronic state of the initial guess is 1-A.
 Requested convergence on RMS density matrix=1.00D-08 within 128 cycles.
 Requested convergence on MAX density matrix=1.00D-06.
 Requested convergence on             energy=1.00D-06.
 No special actions if energy rises.
 Keep R1 integrals in memory in canonical form, NReq=     5139848.
 SCF Done:  E(RHF) =  -154.087689835     A.U. after   11 cycles
             Convg  =    0.8729D-08             -V/T =  2.0016
             S**2   =   0.0000
 ExpMin= 1.22D-01 ExpMax= 1.17D+04 ExpMxC= 4.01D+02 IAcc=1 IRadAn=         1 AccDes= 1.00D-06
 HarFok:  IExCor= 205 AccDes= 1.00D-06 IRadAn=         1 IDoV=1
 ScaDFX=  1.000000  1.000000  1.000000  1.000000
 Range of M.O.s used for correlation:     4    72
 NBasis=    72 NAE=    13 NBE=    13 NFC=     3 NFV=     0
 NROrb=     69 NOA=    10 NOB=    10 NVA=    59 NVB=    59
 Fully direct method using O(ONN) memory.
 JobTyp=1 Pass  1:  I=   4 to  13 NPSUse=  1 ParTrn=F ParDer=F DoDerP=T.
 Spin components of T(2) and E(2):
     alpha-alpha T2 =       0.1739205808D-01 E2=     -0.5669685452D-01
     alpha-beta  T2 =       0.1117108636D+00 E2=     -0.3684697245D+00
     beta-beta   T2 =       0.1739205808D-01 E2=     -0.5669685452D-01
 ANorm=    0.1070745058D+01
 E2 =    -0.4818634335D+00 EUMP2 =    -0.15456955326835D+03
 DoAtom=TTTTTTTTT
          Differentiating once with respect to electric field.
                with respect to dipole field.
          Differentiating once with respect to nuclear coordinates.
          Store integrals in memory, NReq=     4883431.
          There are   1 degrees of freedom in the 1st order CPHF.
     1 vectors were produced by pass  0.
 AX will form   1 AO Fock derivatives at one time.
     1 vectors were produced by pass  1.
     1 vectors were produced by pass  2.
     1 vectors were produced by pass  3.
     1 vectors were produced by pass  4.
     1 vectors were produced by pass  5.
     1 vectors were produced by pass  6.
     1 vectors were produced by pass  7.
     1 vectors were produced by pass  8.
     1 vectors were produced by pass  9.
     1 vectors were produced by pass 10.
     1 vectors were produced by pass 11.
 Inv2:  IOpt= 1 Iter= 1 AM= 2.68D-16 Conv= 1.00D-12.
 Inverted reduced A of dimension   12 with in-core refinement.
 End of Minotr Frequency-dependent properties file   721 does not exist.

 **********************************************************************

            Population analysis using the SCF density.

 **********************************************************************

 Orbital symmetries:
       Occupied  (A) (A) (A) (A) (A) (A) (A) (A) (A) (A) (A) (A)
                 (A)
       Virtual   (A) (A) (A) (A) (A) (A) (A) (A) (A) (A) (A) (A)
                 (A) (A) (A) (A) (A) (A) (A) (A) (A) (A) (A) (A)
                 (A) (A) (A) (A) (A) (A) (A) (A) (A) (A) (A) (A)
                 (A) (A) (A) (A) (A) (A) (A) (A) (A) (A) (A) (A)
                 (A) (A) (A) (A) (A) (A) (A) (A) (A) (A) (A)
 The electronic state is 1-A.
 Alpha  occ. eigenvalues --  -20.54475 -11.28249 -11.23881  -1.35626  -1.00596
 Alpha  occ. eigenvalues --   -0.84872  -0.65401  -0.63931  -0.61647  -0.52738
 Alpha  occ. eigenvalues --   -0.52648  -0.47732  -0.43324
 Alpha virt. eigenvalues --    0.18073   0.21891   0.23888   0.24007   0.25713
 Alpha virt. eigenvalues --    0.28374   0.37331   0.40148   0.58958   0.61441
 Alpha virt. eigenvalues --    0.67305   0.74202   0.75809   0.80768   0.83817
 Alpha virt. eigenvalues --    0.85720   0.87757   0.88124   0.90190   0.92290
 Alpha virt. eigenvalues --    1.10848   1.14326   1.15709   1.29383   1.33069
 Alpha virt. eigenvalues --    1.39153   1.44627   1.48923   1.54685   1.61535
 Alpha virt. eigenvalues --    1.66527   1.83046   1.83872   1.84737   1.88362
 Alpha virt. eigenvalues --    1.91062   1.92457   1.93321   1.95260   1.98850
 Alpha virt. eigenvalues --    2.07399   2.15965   2.22047   2.28036   2.31233
 Alpha virt. eigenvalues --    2.47454   2.47723   2.53741   2.53965   2.69778
 Alpha virt. eigenvalues --    2.73771   2.77299   2.86051   2.87846   3.33616
 Alpha virt. eigenvalues --    3.41225   3.44677   3.65850   4.12774
          Condensed to atoms (all electrons):
              1          2          3          4          5          6
     1  C    4.621458   0.402062   0.401752   0.393546   0.442045  -0.029811
     2  H    0.402062   0.639385  -0.034494  -0.020506  -0.029815  -0.010491
     3  H    0.401752  -0.034494   0.640612  -0.020423  -0.029552   0.007814
     4  H    0.393546  -0.020506  -0.020423   0.626351  -0.021183  -0.001762
     5  C    0.442045  -0.029815  -0.029552  -0.021183   4.375583   0.404069
     6  H   -0.029811  -0.010491   0.007814  -0.001762   0.404069   0.674420
     7  H   -0.030006   0.007900  -0.010761  -0.002125   0.403840  -0.048666
     8  O   -0.049819   0.001229   0.001116   0.003655   0.329047  -0.029442
     9  H   -0.011232   0.002730   0.002818   0.000226  -0.052962   0.004497
              7          8          9
     1  C   -0.030006  -0.049819  -0.011232
     2  H    0.007900   0.001229   0.002730
     3  H   -0.010761   0.001116   0.002818
     4  H   -0.002125   0.003655   0.000226
     5  C    0.403840   0.329047  -0.052962
     6  H   -0.048666  -0.029442   0.004497
     7  H    0.678305  -0.030968   0.004752
     8  O   -0.030968   7.773363   0.376905
     9  H    0.004752   0.376905   0.518558
 Mulliken atomic charges:
              1
     1  C   -0.139995
     2  H    0.042000
     3  H    0.041119
     4  H    0.042223
     5  C    0.178928
     6  H    0.029372
     7  H    0.027729
     8  O   -0.375086
     9  H    0.153710
 Sum of Mulliken charges=   0.00000
 Atomic charges with hydrogens summed into heavy atoms:
              1
     1  C   -0.014652
     2  H    0.000000
     3  H    0.000000
     4  H    0.000000
     5  C    0.236029
     6  H    0.000000
     7  H    0.000000
     8  O   -0.221377
     9  H    0.000000
 Sum of Mulliken charges=   0.00000
 Electronic spatial extent (au):  <R**2>=   192.3367
 Charge=     0.0000 electrons
 Dipole moment (field-independent basis, Debye):
    X=     1.8364    Y=    -0.5122    Z=     0.0007  Tot=     1.9065
 Quadrupole moment (field-independent basis, Debye-Ang):
   XX=   -23.5505   YY=   -17.2791   ZZ=   -19.9713
   XY=     0.6823   XZ=     0.0035   YZ=     0.0196
 Traceless Quadrupole moment (field-independent basis, Debye-Ang):
   XX=    -3.2835   YY=     2.9879   ZZ=     0.2957
   XY=     0.6823   XZ=     0.0035   YZ=     0.0196
 Octapole moment (field-independent basis, Debye-Ang**2):
  XXX=     0.1978  YYY=    -4.5362  ZZZ=     0.0179  XYY=    -4.0042
  XXY=     0.0275  XXZ=    -0.0232  XZZ=    -1.4411  YZZ=    -0.4307
  YYZ=     0.0262  XYZ=    -0.0269
 Hexadecapole moment (field-independent basis, Debye-Ang**3):
 XXXX=  -157.9936 YYYY=   -56.5860 ZZZZ=   -32.8587 XXXY=     4.4498
 XXXZ=    -0.0617 YYYX=     5.6083 YYYZ=     0.1518 ZZZX=     0.0727
 ZZZY=    -0.0242 XXYY=   -32.7613 XXZZ=   -31.7075 YYZZ=   -14.1238
 XXYZ=    -0.0660 YYXZ=    -0.0287 ZZXY=    -0.1718
 N-N= 8.178506386041D+01 E-N=-5.252855010704D+02  KE= 1.538423956924D+02
 ***** Axes restored to original set *****
 -------------------------------------------------------------------
 Center     Atomic                   Forces (Hartrees/Bohr)
 Number     Number              X              Y              Z
 -------------------------------------------------------------------
    1          6          -0.009103418    0.008189776    0.002337882
    2          1          -0.000884647    0.000174489   -0.006355747
    3          1          -0.004662518   -0.004264487   -0.001627258
    4          1           0.005056391   -0.003184686    0.000764976
    5          6           0.005570591    0.007825223    0.007146721
    6          1           0.004460202    0.002702113   -0.000074308
    7          1          -0.000949146   -0.001892754    0.004302673
    8          8          -0.007648931   -0.016423565   -0.019281055
    9          1           0.008161475    0.006873891    0.012786117
 -------------------------------------------------------------------
 Cartesian Forces:  Max     0.019281055 RMS     0.007319097

 GradGradGradGradGradGradGradGradGradGradGradGradGradGradGradGradGradGrad
 Berny optimization.
 Internal  Forces:  Max     0.016436328 RMS     0.005157072
 Search for a local minimum.
 Step number   1 out of a maximum of  43
 All quantities printed in internal units (Hartrees-Bohrs-Radians)
 Second derivative matrix not updated -- first step.
     Eigenvalues ---    0.00362   0.04301   0.05436   0.05488   0.05795
     Eigenvalues ---    0.11359   0.11919   0.16000   0.16000   0.16000
     Eigenvalues ---    0.16000   0.21990   0.29376   0.32274   0.32293
     Eigenvalues ---    0.32302   0.32316   0.32319   0.42948   0.58140
     Eigenvalues --- 1000.000001000.000001000.000001000.000001000.00000
     Eigenvalues --- 1000.000001000.000001000.000001000.000001000.00000
     Eigenvalues --- 1000.000001000.000001000.00000
 RFO step:  Lambda=-3.21326454D-03.
 Linear search not attempted -- first point.
 Iteration  1 RMS(Cart)=  0.03469186 RMS(Int)=  0.00069510
 Iteration  2 RMS(Cart)=  0.00082120 RMS(Int)=  0.00028428
 Iteration  3 RMS(Cart)=  0.00000016 RMS(Int)=  0.00028428
 Iteration  1 RMS(Cart)=  0.00006066 RMS(Int)=  0.00005781
 Iteration  2 RMS(Cart)=  0.00002977 RMS(Int)=  0.00006463
 Iteration  3 RMS(Cart)=  0.00001461 RMS(Int)=  0.00007210
 Iteration  4 RMS(Cart)=  0.00000717 RMS(Int)=  0.00007646
 Iteration  5 RMS(Cart)=  0.00000352 RMS(Int)=  0.00007874
 Iteration  6 RMS(Cart)=  0.00000173 RMS(Int)=  0.00007989
 Iteration  7 RMS(Cart)=  0.00000085 RMS(Int)=  0.00008046
 Variable       Old X    -DE/DX   Delta X   Delta X   Delta X     New X
                                 (Linear)    (Quad)   (Total)
    R1        2.10265  -0.00585   0.00000  -0.01792  -0.01792   2.08473
    R2        2.10312  -0.00601   0.00000  -0.01843  -0.01843   2.08469
    R3        2.10270  -0.00593   0.00000  -0.01818  -0.01818   2.08452
    R4        2.89224  -0.00374   0.00000  -0.01261  -0.01261   2.87963
    R5        2.10345  -0.00517   0.00000  -0.01587  -0.01587   2.08758
    R6        2.10294  -0.00460   0.00000  -0.01411  -0.01411   2.08884
    R7        2.67734   0.00599   0.00000   0.01385   0.01385   2.69119
    R8        1.79144   0.01644   0.00000   0.02812   0.02812   1.81955
    A1        1.87825   0.00308   0.00000   0.01409   0.01371   1.89196
    A2        1.87694   0.00064   0.00000   0.00623   0.00636   1.88330
    A3        1.94794  -0.00353   0.00000  -0.02294  -0.02306   1.92488
    A4        1.87666   0.00053   0.00000   0.00576   0.00588   1.88254
    A5        1.94034  -0.00326   0.00000  -0.02121  -0.02134   1.91900
    A6        1.94043   0.00280   0.00000   0.01972   0.01985   1.96028
    A7        1.93349  -0.00424   0.00000  -0.02503  -0.02477   1.90873
    A8        1.91969  -0.00359   0.00000  -0.01232  -0.01343   1.90627
    A9        1.90658   0.01537   0.00000   0.07497   0.07478   1.98136
   A10        1.88157   0.00144   0.00000  -0.01392  -0.01447   1.86711
   A11        1.92061  -0.00560   0.00000  -0.02632  -0.02595   1.89466
   A12        1.90156  -0.00370   0.00000   0.00136   0.00074   1.90229
   A13        1.88815  -0.00479   0.00000  -0.02936  -0.02936   1.85880
    D1        1.04405   0.00160   0.00000   0.02991   0.02959   1.07364
    D2        3.12247  -0.00156   0.00000  -0.01090  -0.01095   3.11152
    D3       -1.07441   0.00120   0.00000   0.02946   0.02941  -1.04500
    D4        3.14134   0.00090   0.00000   0.01778   0.01773  -3.12412
    D5       -1.06343  -0.00226   0.00000  -0.02303  -0.02280  -1.08623
    D6        1.02288   0.00050   0.00000   0.01733   0.01755   1.04043
    D7       -1.05163   0.00127   0.00000   0.02406   0.02389  -1.02774
    D8        1.02679  -0.00189   0.00000  -0.01675  -0.01665   1.01014
    D9        3.11310   0.00086   0.00000   0.02362   0.02370   3.13680
   D10        0.00000  -0.00040   0.00000   0.00000   0.00000   0.00000
   D11       -2.12625  -0.00150   0.00000  -0.00060  -0.00024  -2.12649
   D12        2.09748   0.00223   0.00000   0.03082   0.03139   2.12887
         Item               Value     Threshold  Converged?
 Maximum Force            0.016436     0.000450     NO 
 RMS     Force            0.005236     0.000300     NO 
 Maximum Displacement     0.095045     0.001800     NO 
 RMS     Displacement     0.034333     0.001200     NO 
 Predicted change in Energy=-1.636024D-03
 GradGradGradGradGradGradGradGradGradGradGradGradGradGradGradGradGradGrad

                          Input orientation:                          
 ---------------------------------------------------------------------
 Center     Atomic     Atomic              Coordinates (Angstroms)
 Number     Number      Type              X           Y           Z
 ---------------------------------------------------------------------
    1          6             0       -1.761981    1.124665    1.227893
    2          1             0       -1.686578    0.635717    2.213932
    3          1             0       -0.866976    1.752719    1.081278
    4          1             0       -2.642378    1.789031    1.245233
    5          6             0       -1.848896    0.077590    0.124191
    6          1             0       -2.757374   -0.533761    0.270057
    7          1             0       -1.954967    0.585565   -0.851791
    8          8             0       -0.721343   -0.790900    0.074556
    9          1             0       -0.129189   -0.510903    0.780293
 ---------------------------------------------------------------------
                    Distance matrix (angstroms):
                    1          2          3          4          5
     1  C    0.000000
     2  H    1.103190   0.000000
     3  H    1.103169   1.789510   0.000000
     4  H    1.103078   1.783833   1.783326   0.000000
     5  C    1.523837   2.169072   2.164773   2.194397   0.000000
     6  H    2.158387   2.508572   3.075659   2.521816   1.104699
     7  H    2.157072   3.077857   2.506538   2.513638   1.105364
     8  O    2.466273   2.746606   2.739470   3.422996   1.424119
     9  H    2.354026   2.407388   2.399772   3.438311   1.932404
                    6          7          8          9
     6  H    0.000000
     7  H    1.776313   0.000000
     8  O    2.061496   2.067511   0.000000
     9  H    2.677353   2.683171   0.962865   0.000000
 Stoichiometry    C2H6O
 Framework group  C1[X(C2H6O)]
 Deg. of freedom    21
 Full point group                 C1
 Largest Abelian subgroup         C1      NOp   1
 Largest concise Abelian subgroup C1      NOp   1
                         Standard orientation:                         
 ---------------------------------------------------------------------
 Center     Atomic     Atomic              Coordinates (Angstroms)
 Number     Number      Type              X           Y           Z
 ---------------------------------------------------------------------
    1          6             0        1.205007   -0.231771    0.000326
    2          1             0        1.258026   -0.874966    0.895043
    3          1             0        1.250665   -0.875409   -0.894451
    4          1             0        2.096826    0.417398   -0.003996
    5          6             0       -0.092432    0.567436    0.000272
    6          1             0       -0.119840    1.221316    0.890243
    7          1             0       -0.113130    1.227618   -0.886047
    8          8             0       -1.261223   -0.246222   -0.000452
    9          1             0       -0.958212   -1.160166   -0.000763
 ---------------------------------------------------------------------
 Rotational constants (GHZ):     34.2079064      9.2752970      8.0406501
 Standard basis: CC-pVDZ (5D, 7F)
 There are    72 symmetry adapted basis functions of A   symmetry.
 Integral buffers will be    131072 words long.
 Raffenetti 1 integral format.
 Two-electron integral symmetry is turned on.
    72 basis functions,   141 primitive gaussians,    75 cartesian basis functions
    13 alpha electrons       13 beta electrons
       nuclear repulsion energy        81.5137938610 Hartrees.
 NAtoms=    9 NActive=    9 NUniq=    9 SFac= 7.50D-01 NAtFMM=   80 NAOKFM=F Big=F
 One-electron integrals computed using PRISM.
 NBasis=    72 RedAO= T  NBF=    72
 NBsUse=    72 1.00D-06 NBFU=    72
 Initial guess read from the read-write file:
 Initial guess orbital symmetries:
       Occupied  (A) (A) (A) (A) (A) (A) (A) (A) (A) (A) (A) (A)
                 (A)
       Virtual   (A) (A) (A) (A) (A) (A) (A) (A) (A) (A) (A) (A)
                 (A) (A) (A) (A) (A) (A) (A) (A) (A) (A) (A) (A)
                 (A) (A) (A) (A) (A) (A) (A) (A) (A) (A) (A) (A)
                 (A) (A) (A) (A) (A) (A) (A) (A) (A) (A) (A) (A)
                 (A) (A) (A) (A) (A) (A) (A) (A) (A) (A) (A)
 Harris functional with IExCor=  205 diagonalized for initial guess.
 ExpMin= 1.22D-01 ExpMax= 1.17D+04 ExpMxC= 4.01D+02 IAcc=1 IRadAn=         1 AccDes= 1.00D-06
 HarFok:  IExCor= 205 AccDes= 1.00D-06 IRadAn=         1 IDoV=1
 ScaDFX=  1.000000  1.000000  1.000000  1.000000
 Requested convergence on RMS density matrix=1.00D-08 within 128 cycles.
 Requested convergence on MAX density matrix=1.00D-06.
 Requested convergence on             energy=1.00D-06.
 No special actions if energy rises.
 Keep R1 integrals in memory in canonical form, NReq=     5139848.
 SCF Done:  E(RHF) =  -154.088639834     A.U. after   10 cycles
             Convg  =    0.5428D-08             -V/T =  2.0014
             S**2   =   0.0000
 ExpMin= 1.22D-01 ExpMax= 1.17D+04 ExpMxC= 4.01D+02 IAcc=1 IRadAn=         1 AccDes= 1.00D-06
 HarFok:  IExCor= 205 AccDes= 1.00D-06 IRadAn=         1 IDoV=1
 ScaDFX=  1.000000  1.000000  1.000000  1.000000
 Range of M.O.s used for correlation:     4    72
 NBasis=    72 NAE=    13 NBE=    13 NFC=     3 NFV=     0
 NROrb=     69 NOA=    10 NOB=    10 NVA=    59 NVB=    59
 Fully direct method using O(ONN) memory.
 JobTyp=1 Pass  1:  I=   4 to  13 NPSUse=  1 ParTrn=F ParDer=F DoDerP=T.
 Spin components of T(2) and E(2):
     alpha-alpha T2 =       0.1743796378D-01 E2=     -0.5679644430D-01
     alpha-beta  T2 =       0.1116893515D+00 E2=     -0.3686646197D+00
     beta-beta   T2 =       0.1743796378D-01 E2=     -0.5679644430D-01
 ANorm=    0.1070777885D+01
 E2 =    -0.4822575083D+00 EUMP2 =    -0.15457089734254D+03
 DoAtom=TTTTTTTTT
          Differentiating once with respect to electric field.
                with respect to dipole field.
          Differentiating once with respect to nuclear coordinates.
          Store integrals in memory, NReq=     4883431.
          There are   1 degrees of freedom in the 1st order CPHF.
     1 vectors were produced by pass  0.
 AX will form   1 AO Fock derivatives at one time.
     1 vectors were produced by pass  1.
     1 vectors were produced by pass  2.
     1 vectors were produced by pass  3.
     1 vectors were produced by pass  4.
     1 vectors were produced by pass  5.
     1 vectors were produced by pass  6.
     1 vectors were produced by pass  7.
     1 vectors were produced by pass  8.
     1 vectors were produced by pass  9.
     1 vectors were produced by pass 10.
     1 vectors were produced by pass 11.
 Inv2:  IOpt= 1 Iter= 1 AM= 4.56D-16 Conv= 1.00D-12.
 Inverted reduced A of dimension   12 with in-core refinement.
 End of Minotr Frequency-dependent properties file   721 does not exist.
 ***** Axes restored to original set *****
 -------------------------------------------------------------------
 Center     Atomic                   Forces (Hartrees/Bohr)
 Number     Number              X              Y              Z
 -------------------------------------------------------------------
    1          6           0.002443060   -0.000836528    0.000507455
    2          1           0.000166055    0.000005343    0.000681652
    3          1           0.000502094    0.000706420    0.000501911
    4          1           0.000011643   -0.001445369   -0.001348745
    5          6          -0.003410079    0.001053090   -0.000456664
    6          1          -0.000900727   -0.000517531   -0.000130144
    7          1           0.000441675   -0.000252526   -0.000788068
    8          8          -0.000693094    0.000738675   -0.000435638
    9          1           0.001439373    0.000548427    0.001468241
 -------------------------------------------------------------------
 Cartesian Forces:  Max     0.003410079 RMS     0.001105470

 GradGradGradGradGradGradGradGradGradGradGradGradGradGradGradGradGradGrad
 Berny optimization.
 Internal  Forces:  Max     0.003397395 RMS     0.001082879
 Search for a local minimum.
 Step number   2 out of a maximum of  43
 All quantities printed in internal units (Hartrees-Bohrs-Radians)
 Update second derivatives using D2CorX and points  1  2
 Trust test= 8.22D-01 RLast= 1.33D-01 DXMaxT set to 4.00D-01
     Eigenvalues ---    0.00363   0.03953   0.05432   0.05673   0.06005
     Eigenvalues ---    0.11757   0.12452   0.15623   0.16000   0.16000
     Eigenvalues ---    0.16725   0.25449   0.29136   0.31789   0.32283
     Eigenvalues ---    0.32299   0.32312   0.33222   0.42872   0.55388
     Eigenvalues --- 1000.000001000.000001000.000001000.000001000.00000
     Eigenvalues --- 1000.000001000.000001000.000001000.000001000.00000
     Eigenvalues --- 1000.000001000.000001000.00000
 RFO step:  Lambda=-1.00027739D-04.
 Quartic linear search produced a step of -0.13426.
 Iteration  1 RMS(Cart)=  0.00733172 RMS(Int)=  0.00004023
 Iteration  2 RMS(Cart)=  0.00003945 RMS(Int)=  0.00002731
 Iteration  3 RMS(Cart)=  0.00000000 RMS(Int)=  0.00002731
 Iteration  1 RMS(Cart)=  0.00000456 RMS(Int)=  0.00000431
 Iteration  2 RMS(Cart)=  0.00000224 RMS(Int)=  0.00000482
 Iteration  3 RMS(Cart)=  0.00000110 RMS(Int)=  0.00000538
 Iteration  4 RMS(Cart)=  0.00000054 RMS(Int)=  0.00000570
 Variable       Old X    -DE/DX   Delta X   Delta X   Delta X     New X
                                 (Linear)    (Quad)   (Total)
    R1        2.08473   0.00062   0.00241  -0.00129   0.00112   2.08585
    R2        2.08469   0.00074   0.00247  -0.00104   0.00144   2.08613
    R3        2.08452  -0.00090   0.00244  -0.00540  -0.00296   2.08156
    R4        2.87963  -0.00065   0.00169  -0.00399  -0.00230   2.87734
    R5        2.08758   0.00101   0.00213   0.00010   0.00223   2.08981
    R6        2.08884   0.00054   0.00189  -0.00088   0.00102   2.08985
    R7        2.69119  -0.00023  -0.00186   0.00182  -0.00004   2.69115
    R8        1.81955   0.00212  -0.00377   0.00779   0.00402   1.82357
    A1        1.89196  -0.00063  -0.00184   0.00256   0.00072   1.89268
    A2        1.88330   0.00081  -0.00085   0.00293   0.00205   1.88535
    A3        1.92488   0.00077   0.00310   0.00098   0.00406   1.92894
    A4        1.88254   0.00062  -0.00079   0.00313   0.00236   1.88490
    A5        1.91900   0.00139   0.00287   0.00538   0.00825   1.92725
    A6        1.96028  -0.00292  -0.00266  -0.01448  -0.01715   1.94313
    A7        1.90873   0.00095   0.00333   0.00171   0.00500   1.91373
    A8        1.90627   0.00141   0.00180   0.00386   0.00576   1.91202
    A9        1.98136  -0.00340  -0.01004  -0.00236  -0.01237   1.96899
   A10        1.86711  -0.00045   0.00194  -0.00021   0.00178   1.86888
   A11        1.89466   0.00121   0.00348   0.00065   0.00410   1.89876
   A12        1.90229   0.00042  -0.00010  -0.00358  -0.00359   1.89870
   A13        1.85880   0.00029   0.00394  -0.00323   0.00072   1.85951
    D1        1.07364  -0.00060  -0.00397  -0.00143  -0.00538   1.06826
    D2        3.11152   0.00021   0.00147   0.00148   0.00297   3.11449
    D3       -1.04500  -0.00054  -0.00395  -0.00191  -0.00587  -1.05086
    D4       -3.12412  -0.00002  -0.00238   0.00573   0.00336  -3.12075
    D5       -1.08623   0.00078   0.00306   0.00864   0.01171  -1.07452
    D6        1.04043   0.00004  -0.00236   0.00525   0.00288   1.04331
    D7       -1.02774  -0.00021  -0.00321   0.00386   0.00065  -1.02709
    D8        1.01014   0.00060   0.00223   0.00677   0.00900   1.01914
    D9        3.13680  -0.00015  -0.00318   0.00338   0.00017   3.13697
   D10        0.00000  -0.00004   0.00000   0.00000   0.00001   0.00000
   D11       -2.12649   0.00013   0.00003  -0.00108  -0.00109  -2.12758
   D12        2.12887  -0.00022  -0.00421   0.00075  -0.00350   2.12538
         Item               Value     Threshold  Converged?
 Maximum Force            0.003397     0.000450     NO 
 RMS     Force            0.001100     0.000300     NO 
 Maximum Displacement     0.018970     0.001800     NO 
 RMS     Displacement     0.007358     0.001200     NO 
 Predicted change in Energy=-8.122477D-05
 GradGradGradGradGradGradGradGradGradGradGradGradGradGradGradGradGradGrad

                          Input orientation:                          
 ---------------------------------------------------------------------
 Center     Atomic     Atomic              Coordinates (Angstroms)
 Number     Number      Type              X           Y           Z
 ---------------------------------------------------------------------
    1          6             0       -1.756024    1.121428    1.228380
    2          1             0       -1.682248    0.633251    2.215587
    3          1             0       -0.862402    1.753189    1.083537
    4          1             0       -2.639673    1.778992    1.238547
    5          6             0       -1.854269    0.078605    0.123282
    6          1             0       -2.764376   -0.532591    0.268600
    7          1             0       -1.955491    0.584426   -0.854940
    8          8             0       -0.723541   -0.785935    0.077750
    9          1             0       -0.131659   -0.501643    0.784899
 ---------------------------------------------------------------------
                    Distance matrix (angstroms):
                    1          2          3          4          5
     1  C    0.000000
     2  H    1.103782   0.000000
     3  H    1.103930   1.791073   0.000000
     4  H    1.101513   1.784374   1.784205   0.000000
     5  C    1.522620   2.171396   2.170281   2.179906   0.000000
     6  H    2.161881   2.514149   3.083247   2.509933   1.105881
     7  H    2.160644   3.083047   2.513671   2.505550   1.105902
     8  O    2.455199   2.739262   2.734600   3.405563   1.424095
     9  H    2.338717   2.395658   2.389025   3.420121   1.934376
                    6          7          8          9
     6  H    0.000000
     7  H    1.778866   0.000000
     8  O    2.065336   2.065308   0.000000
     9  H    2.683043   2.682346   0.964991   0.000000
 Stoichiometry    C2H6O
 Framework group  C1[X(C2H6O)]
 Deg. of freedom    21
 Full point group                 C1
 Largest Abelian subgroup         C1      NOp   1
 Largest concise Abelian subgroup C1      NOp   1
                         Standard orientation:                         
 ---------------------------------------------------------------------
 Center     Atomic     Atomic              Coordinates (Angstroms)
 Number     Number      Type              X           Y           Z
 ---------------------------------------------------------------------
    1          6             0        1.199509   -0.233657    0.000183
    2          1             0        1.255954   -0.874238    0.897292
    3          1             0        1.250857   -0.879319   -0.893767
    4          1             0        2.082488    0.424869   -0.004458
    5          6             0       -0.092435    0.572105    0.000131
    6          1             0       -0.120727    1.229479    0.888968
    7          1             0       -0.119519    1.227953   -0.889897
    8          8             0       -1.255639   -0.249482    0.000000
    9          1             0       -0.946382   -1.163575   -0.000024
 ---------------------------------------------------------------------
 Rotational constants (GHZ):     33.8681510      9.3542799      8.0826649
 Standard basis: CC-pVDZ (5D, 7F)
 There are    72 symmetry adapted basis functions of A   symmetry.
 Integral buffers will be    131072 words long.
 Raffenetti 1 integral format.
 Two-electron integral symmetry is turned on.
    72 basis functions,   141 primitive gaussians,    75 cartesian basis functions
    13 alpha electrons       13 beta electrons
       nuclear repulsion energy        81.5766912956 Hartrees.
 NAtoms=    9 NActive=    9 NUniq=    9 SFac= 7.50D-01 NAtFMM=   80 NAOKFM=F Big=F
 One-electron integrals computed using PRISM.
 NBasis=    72 RedAO= T  NBF=    72
 NBsUse=    72 1.00D-06 NBFU=    72
 Initial guess read from the read-write file:
 Initial guess orbital symmetries:
       Occupied  (A) (A) (A) (A) (A) (A) (A) (A) (A) (A) (A) (A)
                 (A)
       Virtual   (A) (A) (A) (A) (A) (A) (A) (A) (A) (A) (A) (A)
                 (A) (A) (A) (A) (A) (A) (A) (A) (A) (A) (A) (A)
                 (A) (A) (A) (A) (A) (A) (A) (A) (A) (A) (A) (A)
                 (A) (A) (A) (A) (A) (A) (A) (A) (A) (A) (A) (A)
                 (A) (A) (A) (A) (A) (A) (A) (A) (A) (A) (A)
 Requested convergence on RMS density matrix=1.00D-08 within 128 cycles.
 Requested convergence on MAX density matrix=1.00D-06.
 Requested convergence on             energy=1.00D-06.
 No special actions if energy rises.
 Keep R1 integrals in memory in canonical form, NReq=     5139848.
 SCF Done:  E(RHF) =  -154.088686675     A.U. after    9 cycles
             Convg  =    0.4087D-08             -V/T =  2.0015
             S**2   =   0.0000
 ExpMin= 1.22D-01 ExpMax= 1.17D+04 ExpMxC= 4.01D+02 IAcc=1 IRadAn=         1 AccDes= 1.00D-06
 HarFok:  IExCor= 205 AccDes= 1.00D-06 IRadAn=         1 IDoV=1
 ScaDFX=  1.000000  1.000000  1.000000  1.000000
 Range of M.O.s used for correlation:     4    72
 NBasis=    72 NAE=    13 NBE=    13 NFC=     3 NFV=     0
 NROrb=     69 NOA=    10 NOB=    10 NVA=    59 NVB=    59
 Fully direct method using O(ONN) memory.
 JobTyp=1 Pass  1:  I=   4 to  13 NPSUse=  1 ParTrn=F ParDer=F DoDerP=T.
 Spin components of T(2) and E(2):
     alpha-alpha T2 =       0.1743723359D-01 E2=     -0.5679804674D-01
     alpha-beta  T2 =       0.1117030387D+00 E2=     -0.3686962135D+00
     beta-beta   T2 =       0.1743723359D-01 E2=     -0.5679804674D-01
 ANorm=    0.1070783594D+01
 E2 =    -0.4822923070D+00 EUMP2 =    -0.15457097898231D+03
 DoAtom=TTTTTTTTT
          Differentiating once with respect to electric field.
                with respect to dipole field.
          Differentiating once with respect to nuclear coordinates.
          Store integrals in memory, NReq=     4883431.
          There are   1 degrees of freedom in the 1st order CPHF.
     1 vectors were produced by pass  0.
 AX will form   1 AO Fock derivatives at one time.
     1 vectors were produced by pass  1.
     1 vectors were produced by pass  2.
     1 vectors were produced by pass  3.
     1 vectors were produced by pass  4.
     1 vectors were produced by pass  5.
     1 vectors were produced by pass  6.
     1 vectors were produced by pass  7.
     1 vectors were produced by pass  8.
     1 vectors were produced by pass  9.
     1 vectors were produced by pass 10.
     1 vectors were produced by pass 11.
 Inv2:  IOpt= 1 Iter= 1 AM= 5.32D-16 Conv= 1.00D-12.
 Inverted reduced A of dimension   12 with in-core refinement.
 End of Minotr Frequency-dependent properties file   721 does not exist.
 ***** Axes restored to original set *****
 -------------------------------------------------------------------
 Center     Atomic                   Forces (Hartrees/Bohr)
 Number     Number              X              Y              Z
 -------------------------------------------------------------------
    1          6           0.000372457   -0.000056637    0.000130266
    2          1           0.000042147   -0.000067266    0.000033210
    3          1          -0.000000855   -0.000006701    0.000017917
    4          1          -0.000427630    0.000189605   -0.000072677
    5          6          -0.000361415    0.000467207    0.000030225
    6          1          -0.000106078   -0.000046752    0.000052883
    7          1          -0.000018963    0.000015661   -0.000142050
    8          8           0.000720900   -0.000384898    0.000215328
    9          1          -0.000220563   -0.000110219   -0.000265102
 -------------------------------------------------------------------
 Cartesian Forces:  Max     0.000720900 RMS     0.000245167

 GradGradGradGradGradGradGradGradGradGradGradGradGradGradGradGradGradGrad
 Berny optimization.
 Internal  Forces:  Max     0.000699434 RMS     0.000172217
 Search for a local minimum.
 Step number   3 out of a maximum of  43
 All quantities printed in internal units (Hartrees-Bohrs-Radians)
 Update second derivatives using D2CorX and points  1  2  3
 Trust test= 1.01D+00 RLast= 3.16D-02 DXMaxT set to 4.00D-01
     Eigenvalues ---    0.00362   0.04027   0.05511   0.05608   0.05959
     Eigenvalues ---    0.11684   0.12317   0.15196   0.16000   0.16001
     Eigenvalues ---    0.16366   0.25321   0.29355   0.32170   0.32269
     Eigenvalues ---    0.32300   0.32311   0.33417   0.43284   0.57335
     Eigenvalues --- 1000.000001000.000001000.000001000.000001000.00000
     Eigenvalues --- 1000.000001000.000001000.000001000.000001000.00000
     Eigenvalues --- 1000.000001000.000001000.00000
 RFO step:  Lambda=-3.18616791D-06.
 Quartic linear search produced a step of -0.00879.
 Iteration  1 RMS(Cart)=  0.00201383 RMS(Int)=  0.00000256
 Iteration  2 RMS(Cart)=  0.00000255 RMS(Int)=  0.00000022
 Iteration  3 RMS(Cart)=  0.00000000 RMS(Int)=  0.00000022
 Iteration  1 RMS(Cart)=  0.00000029 RMS(Int)=  0.00000027
 Variable       Old X    -DE/DX   Delta X   Delta X   Delta X     New X
                                 (Linear)    (Quad)   (Total)
    R1        2.08585   0.00006  -0.00001   0.00022   0.00021   2.08606
    R2        2.08613  -0.00001  -0.00001   0.00002   0.00001   2.08613
    R3        2.08156   0.00046   0.00003   0.00131   0.00133   2.08289
    R4        2.87734   0.00012   0.00002   0.00033   0.00035   2.87768
    R5        2.08981   0.00012  -0.00002   0.00043   0.00041   2.09022
    R6        2.08985   0.00013  -0.00001   0.00044   0.00043   2.09028
    R7        2.69115   0.00070   0.00000   0.00161   0.00161   2.69276
    R8        1.82357  -0.00036  -0.00004  -0.00049  -0.00053   1.82304
    A1        1.89268   0.00000  -0.00001   0.00008   0.00008   1.89275
    A2        1.88535   0.00009  -0.00002   0.00046   0.00044   1.88578
    A3        1.92894  -0.00004  -0.00004  -0.00021  -0.00025   1.92869
    A4        1.88490   0.00007  -0.00002   0.00063   0.00061   1.88550
    A5        1.92725   0.00006  -0.00007   0.00071   0.00064   1.92789
    A6        1.94313  -0.00017   0.00015  -0.00162  -0.00147   1.94166
    A7        1.91373  -0.00010  -0.00004  -0.00066  -0.00070   1.91303
    A8        1.91202   0.00004  -0.00005   0.00071   0.00066   1.91269
    A9        1.96899   0.00015   0.00011   0.00037   0.00048   1.96947
   A10        1.86888   0.00001  -0.00002  -0.00010  -0.00012   1.86877
   A11        1.89876  -0.00004  -0.00004  -0.00034  -0.00038   1.89839
   A12        1.89870  -0.00006   0.00003  -0.00001   0.00002   1.89872
   A13        1.85951   0.00001  -0.00001   0.00005   0.00005   1.85956
    D1        1.06826   0.00000   0.00005   0.00296   0.00301   1.07127
    D2        3.11449  -0.00002  -0.00003   0.00287   0.00285   3.11734
    D3       -1.05086   0.00003   0.00005   0.00362   0.00367  -1.04720
    D4       -3.12075   0.00001  -0.00003   0.00339   0.00336  -3.11739
    D5       -1.07452  -0.00001  -0.00010   0.00330   0.00320  -1.07132
    D6        1.04331   0.00004  -0.00003   0.00405   0.00402   1.04733
    D7       -1.02709   0.00003  -0.00001   0.00360   0.00359  -1.02350
    D8        1.01914   0.00000  -0.00008   0.00351   0.00343   1.02256
    D9        3.13697   0.00005   0.00000   0.00425   0.00425   3.14122
   D10        0.00000  -0.00005   0.00000   0.00000   0.00000   0.00000
   D11       -2.12758   0.00001   0.00001   0.00083   0.00084  -2.12674
   D12        2.12538   0.00005   0.00003   0.00115   0.00118   2.12655
         Item               Value     Threshold  Converged?
 Maximum Force            0.000699     0.000450     NO 
 RMS     Force            0.000174     0.000300     YES
 Maximum Displacement     0.004997     0.001800     NO 
 RMS     Displacement     0.002014     0.001200     NO 
 Predicted change in Energy=-1.598671D-06
 GradGradGradGradGradGradGradGradGradGradGradGradGradGradGradGradGradGrad

                          Input orientation:                          
 ---------------------------------------------------------------------
 Center     Atomic     Atomic              Coordinates (Angstroms)
 Number     Number      Type              X           Y           Z
 ---------------------------------------------------------------------
    1          6             0       -1.755720    1.121963    1.228519
    2          1             0       -1.679723    0.633263    2.215422
    3          1             0       -0.863700    1.755833    1.082993
    4          1             0       -2.641882    1.777313    1.239327
    5          6             0       -1.853873    0.079249    0.123056
    6          1             0       -2.764762   -0.531175    0.268378
    7          1             0       -1.954429    0.584734   -0.855667
    8          8             0       -0.723587   -0.787302    0.078067
    9          1             0       -0.132008   -0.504155    0.785548
 ---------------------------------------------------------------------
                    Distance matrix (angstroms):
                    1          2          3          4          5
     1  C    0.000000
     2  H    1.103894   0.000000
     3  H    1.103933   1.791216   0.000000
     4  H    1.102217   1.785318   1.785170   0.000000
     5  C    1.522805   2.171464   2.170911   2.179551   0.000000
     6  H    2.161689   2.514797   3.083511   2.507380   1.106099
     7  H    2.161465   3.083733   2.513874   2.506758   1.106131
     8  O    2.456447   2.738702   2.738073   3.406704   1.424949
     9  H    2.340283   2.394511   2.394033   3.422058   1.934961
                    6          7          8          9
     6  H    0.000000
     7  H    1.779149   0.000000
     8  O    2.065966   2.066232   0.000000
     9  H    2.683205   2.683372   0.964711   0.000000
 Stoichiometry    C2H6O
 Framework group  C1[X(C2H6O)]
 Deg. of freedom    21
 Full point group                 C1
 Largest Abelian subgroup         C1      NOp   1
 Largest concise Abelian subgroup C1      NOp   1
                         Standard orientation:                         
 ---------------------------------------------------------------------
 Center     Atomic     Atomic              Coordinates (Angstroms)
 Number     Number      Type              X           Y           Z
 ---------------------------------------------------------------------
    1          6             0       -1.199948   -0.234106   -0.000065
    2          1             0       -1.254303   -0.877451   -0.895461
    3          1             0       -1.253649   -0.876984    0.895755
    4          1             0       -2.082680    0.425945    0.000258
    5          6             0        0.091968    0.572050   -0.000052
    6          1             0        0.119696    1.228801   -0.889639
    7          1             0        0.119210    1.228908    0.889510
    8          8             0        1.256453   -0.249203    0.000028
    9          1             0        0.947978   -1.163266    0.000055
 ---------------------------------------------------------------------
 Rotational constants (GHZ):     33.8617255      9.3454229      8.0758832
 Standard basis: CC-pVDZ (5D, 7F)
 There are    72 symmetry adapted basis functions of A   symmetry.
 Integral buffers will be    131072 words long.
 Raffenetti 1 integral format.
 Two-electron integral symmetry is turned on.
    72 basis functions,   141 primitive gaussians,    75 cartesian basis functions
    13 alpha electrons       13 beta electrons
       nuclear repulsion energy        81.5505937242 Hartrees.
 NAtoms=    9 NActive=    9 NUniq=    9 SFac= 7.50D-01 NAtFMM=   80 NAOKFM=F Big=F
 One-electron integrals computed using PRISM.
 NBasis=    72 RedAO= T  NBF=    72
 NBsUse=    72 1.00D-06 NBFU=    72
 Initial guess read from the read-write file:
 Initial guess orbital symmetries:
       Occupied  (A) (A) (A) (A) (A) (A) (A) (A) (A) (A) (A) (A)
                 (A)
       Virtual   (A) (A) (A) (A) (A) (A) (A) (A) (A) (A) (A) (A)
                 (A) (A) (A) (A) (A) (A) (A) (A) (A) (A) (A) (A)
                 (A) (A) (A) (A) (A) (A) (A) (A) (A) (A) (A) (A)
                 (A) (A) (A) (A) (A) (A) (A) (A) (A) (A) (A) (A)
                 (A) (A) (A) (A) (A) (A) (A) (A) (A) (A) (A)
 Requested convergence on RMS density matrix=1.00D-08 within 128 cycles.
 Requested convergence on MAX density matrix=1.00D-06.
 Requested convergence on             energy=1.00D-06.
 No special actions if energy rises.
 Keep R1 integrals in memory in canonical form, NReq=     5139848.
 SCF Done:  E(RHF) =  -154.088663026     A.U. after   13 cycles
             Convg  =    0.9838D-08             -V/T =  2.0015
             S**2   =   0.0000
 ExpMin= 1.22D-01 ExpMax= 1.17D+04 ExpMxC= 4.01D+02 IAcc=1 IRadAn=         1 AccDes= 1.00D-06
 HarFok:  IExCor= 205 AccDes= 1.00D-06 IRadAn=         1 IDoV=1
 ScaDFX=  1.000000  1.000000  1.000000  1.000000
 Range of M.O.s used for correlation:     4    72
 NBasis=    72 NAE=    13 NBE=    13 NFC=     3 NFV=     0
 NROrb=     69 NOA=    10 NOB=    10 NVA=    59 NVB=    59
 Fully direct method using O(ONN) memory.
 JobTyp=1 Pass  1:  I=   4 to  13 NPSUse=  1 ParTrn=F ParDer=F DoDerP=T.
 Spin components of T(2) and E(2):
     alpha-alpha T2 =       0.1744025048D-01 E2=     -0.5679667380D-01
     alpha-beta  T2 =       0.1117369779D+00 E2=     -0.3687243331D+00
     beta-beta   T2 =       0.1744025048D-01 E2=     -0.5679667380D-01
 ANorm=    0.1070802259D+01
 E2 =    -0.4823176807D+00 EUMP2 =    -0.15457098070682D+03
 DoAtom=TTTTTTTTT
          Differentiating once with respect to electric field.
                with respect to dipole field.
          Differentiating once with respect to nuclear coordinates.
          Store integrals in memory, NReq=     4883431.
          There are   1 degrees of freedom in the 1st order CPHF.
     1 vectors were produced by pass  0.
 AX will form   1 AO Fock derivatives at one time.
     1 vectors were produced by pass  1.
     1 vectors were produced by pass  2.
     1 vectors were produced by pass  3.
     1 vectors were produced by pass  4.
     1 vectors were produced by pass  5.
     1 vectors were produced by pass  6.
     1 vectors were produced by pass  7.
     1 vectors were produced by pass  8.
     1 vectors were produced by pass  9.
     1 vectors were produced by pass 10.
     1 vectors were produced by pass 11.
 Inv2:  IOpt= 1 Iter= 1 AM= 2.86D-16 Conv= 1.00D-12.
 Inverted reduced A of dimension   12 with in-core refinement.
 End of Minotr Frequency-dependent properties file   721 does not exist.
 ***** Axes restored to original set *****
 -------------------------------------------------------------------
 Center     Atomic                   Forces (Hartrees/Bohr)
 Number     Number              X              Y              Z
 -------------------------------------------------------------------
    1          6           0.000050681    0.000066428   -0.000011078
    2          1          -0.000015242   -0.000013087   -0.000029109
    3          1          -0.000028937   -0.000010796    0.000021722
    4          1           0.000000777   -0.000026282   -0.000003229
    5          6          -0.000147430    0.000105230    0.000056239
    6          1           0.000031628    0.000003154    0.000009197
    7          1           0.000048387   -0.000040696    0.000027697
    8          8           0.000126208   -0.000102469   -0.000035991
    9          1          -0.000066072    0.000018518   -0.000035448
 -------------------------------------------------------------------
 Cartesian Forces:  Max     0.000147430 RMS     0.000056438

 GradGradGradGradGradGradGradGradGradGradGradGradGradGradGradGradGradGrad
 Berny optimization.
 Internal  Forces:  Max     0.000101009 RMS     0.000035006
 Search for a local minimum.
 Step number   4 out of a maximum of  43
 All quantities printed in internal units (Hartrees-Bohrs-Radians)
 Update second derivatives using D2CorX and points  1  2  3  4
 Trust test= 1.08D+00 RLast= 1.11D-02 DXMaxT set to 4.00D-01
     Eigenvalues ---    0.00367   0.04093   0.05372   0.05611   0.05987
     Eigenvalues ---    0.11370   0.12084   0.14044   0.15981   0.16115
     Eigenvalues ---    0.16823   0.25506   0.29382   0.32206   0.32248
     Eigenvalues ---    0.32307   0.33205   0.34690   0.40848   0.56097
     Eigenvalues --- 1000.000001000.000001000.000001000.000001000.00000
     Eigenvalues --- 1000.000001000.000001000.000001000.000001000.00000
     Eigenvalues --- 1000.000001000.000001000.00000
 RFO step:  Lambda=-2.22816048D-07.
 Quartic linear search produced a step of  0.08708.
 Iteration  1 RMS(Cart)=  0.00030506 RMS(Int)=  0.00000009
 Iteration  2 RMS(Cart)=  0.00000007 RMS(Int)=  0.00000006
 Iteration  1 RMS(Cart)=  0.00000013 RMS(Int)=  0.00000012
 Variable       Old X    -DE/DX   Delta X   Delta X   Delta X     New X
                                 (Linear)    (Quad)   (Total)
    R1        2.08606  -0.00002   0.00002  -0.00008  -0.00006   2.08600
    R2        2.08613  -0.00003   0.00000  -0.00011  -0.00011   2.08602
    R3        2.08289  -0.00002   0.00012  -0.00010   0.00002   2.08290
    R4        2.87768   0.00000   0.00003  -0.00004  -0.00001   2.87767
    R5        2.09022  -0.00003   0.00004  -0.00009  -0.00005   2.09017
    R6        2.09028  -0.00005   0.00004  -0.00017  -0.00013   2.09015
    R7        2.69276   0.00010   0.00014   0.00024   0.00038   2.69315
    R8        1.82304  -0.00006  -0.00005  -0.00007  -0.00011   1.82293
    A1        1.89275   0.00001   0.00001   0.00011   0.00012   1.89287
    A2        1.88578   0.00002   0.00004  -0.00007  -0.00004   1.88575
    A3        1.92869  -0.00004  -0.00002  -0.00034  -0.00036   1.92834
    A4        1.88550   0.00000   0.00005   0.00015   0.00020   1.88571
    A5        1.92789   0.00004   0.00006   0.00043   0.00048   1.92838
    A6        1.94166  -0.00002  -0.00013  -0.00027  -0.00040   1.94127
    A7        1.91303  -0.00002  -0.00006   0.00004  -0.00002   1.91301
    A8        1.91269   0.00001   0.00006   0.00014   0.00020   1.91288
    A9        1.96947   0.00006   0.00004   0.00021   0.00026   1.96973
   A10        1.86877   0.00002  -0.00001   0.00023   0.00022   1.86899
   A11        1.89839  -0.00002  -0.00003  -0.00007  -0.00011   1.89828
   A12        1.89872  -0.00006   0.00000  -0.00056  -0.00056   1.89817
   A13        1.85956  -0.00009   0.00000  -0.00060  -0.00059   1.85897
    D1        1.07127  -0.00002   0.00026  -0.00052  -0.00025   1.07102
    D2        3.11734   0.00000   0.00025  -0.00013   0.00012   3.11745
    D3       -1.04720  -0.00002   0.00032  -0.00060  -0.00028  -1.04747
    D4       -3.11739  -0.00001   0.00029  -0.00032  -0.00003  -3.11741
    D5       -1.07132   0.00001   0.00028   0.00007   0.00035  -1.07098
    D6        1.04733  -0.00001   0.00035  -0.00040  -0.00005   1.04728
    D7       -1.02350   0.00001   0.00031  -0.00002   0.00029  -1.02321
    D8        1.02256   0.00003   0.00030   0.00036   0.00066   1.02323
    D9        3.14122   0.00000   0.00037  -0.00010   0.00026   3.14148
   D10        0.00000  -0.00001   0.00000   0.00000   0.00000   0.00000
   D11       -2.12674  -0.00001   0.00007  -0.00015  -0.00007  -2.12681
   D12        2.12655   0.00001   0.00010  -0.00008   0.00003   2.12658
         Item               Value     Threshold  Converged?
 Maximum Force            0.000101     0.000450     YES
 RMS     Force            0.000036     0.000300     YES
 Maximum Displacement     0.000660     0.001800     YES
 RMS     Displacement     0.000305     0.001200     YES
 Predicted change in Energy=-1.224976D-07
 Optimization completed.
    -- Stationary point found.
                           ----------------------------
                           !   Optimized Parameters   !
                           ! (Angstroms and Degrees)  !
 --------------------------                            --------------------------
 ! Name  Definition              Value          Derivative Info.                !
 --------------------------------------------------------------------------------
 ! R1    R(1,2)                  1.1039         -DE/DX =    0.0                 !
 ! R2    R(1,3)                  1.1039         -DE/DX =    0.0                 !
 ! R3    R(1,4)                  1.1022         -DE/DX =    0.0                 !
 ! R4    R(1,5)                  1.5228         -DE/DX =    0.0                 !
 ! R5    R(5,6)                  1.1061         -DE/DX =    0.0                 !
 ! R6    R(5,7)                  1.1061         -DE/DX =    0.0                 !
 ! R7    R(5,8)                  1.4249         -DE/DX =    0.0001              !
 ! R8    R(8,9)                  0.9647         -DE/DX =   -0.0001              !
 ! A1    A(2,1,3)              108.4468         -DE/DX =    0.0                 !
 ! A2    A(2,1,4)              108.0474         -DE/DX =    0.0                 !
 ! A3    A(2,1,5)              110.5061         -DE/DX =    0.0                 !
 ! A4    A(3,1,4)              108.0315         -DE/DX =    0.0                 !
 ! A5    A(3,1,5)              110.46           -DE/DX =    0.0                 !
 ! A6    A(4,1,5)              111.2491         -DE/DX =    0.0                 !
 ! A7    A(1,5,6)              109.6083         -DE/DX =    0.0                 !
 ! A8    A(1,5,7)              109.5889         -DE/DX =    0.0                 !
 ! A9    A(1,5,8)              112.8424         -DE/DX =    0.0001              !
 ! A10   A(6,5,7)              107.0725         -DE/DX =    0.0                 !
 ! A11   A(6,5,8)              108.7695         -DE/DX =    0.0                 !
 ! A12   A(7,5,8)              108.7887         -DE/DX =   -0.0001              !
 ! A13   A(5,8,9)              106.5451         -DE/DX =   -0.0001              !
 ! D1    D(2,1,5,6)             61.3793         -DE/DX =    0.0                 !
 ! D2    D(2,1,5,7)            178.6102         -DE/DX =    0.0                 !
 ! D3    D(2,1,5,8)            -59.9999         -DE/DX =    0.0                 !
 ! D4    D(3,1,5,6)           -178.6132         -DE/DX =    0.0                 !
 ! D5    D(3,1,5,7)            -61.3823         -DE/DX =    0.0                 !
 ! D6    D(3,1,5,8)             60.0076         -DE/DX =    0.0                 !
 ! D7    D(4,1,5,6)            -58.6423         -DE/DX =    0.0                 !
 ! D8    D(4,1,5,7)             58.5886         -DE/DX =    0.0                 !
 ! D9    D(4,1,5,8)            179.9785         -DE/DX =    0.0                 !
 ! D10   D(1,5,8,9)              0.0001         -DE/DX =    0.0                 !
 ! D11   D(6,5,8,9)           -121.8533         -DE/DX =    0.0                 !
 ! D12   D(7,5,8,9)            121.8424         -DE/DX =    0.0                 !
 --------------------------------------------------------------------------------
 GradGradGradGradGradGradGradGradGradGradGradGradGradGradGradGradGradGrad

                          Input orientation:                          
 ---------------------------------------------------------------------
 Center     Atomic     Atomic              Coordinates (Angstroms)
 Number     Number      Type              X           Y           Z
 ---------------------------------------------------------------------
    1          6             0       -1.755720    1.121963    1.228519
    2          1             0       -1.679723    0.633263    2.215422
    3          1             0       -0.863700    1.755833    1.082993
    4          1             0       -2.641882    1.777313    1.239327
    5          6             0       -1.853873    0.079249    0.123056
    6          1             0       -2.764762   -0.531175    0.268378
    7          1             0       -1.954429    0.584734   -0.855667
    8          8             0       -0.723587   -0.787302    0.078067
    9          1             0       -0.132008   -0.504155    0.785548
 ---------------------------------------------------------------------
                    Distance matrix (angstroms):
                    1          2          3          4          5
     1  C    0.000000
     2  H    1.103894   0.000000
     3  H    1.103933   1.791216   0.000000
     4  H    1.102217   1.785318   1.785170   0.000000
     5  C    1.522805   2.171464   2.170911   2.179551   0.000000
     6  H    2.161689   2.514797   3.083511   2.507380   1.106099
     7  H    2.161465   3.083733   2.513874   2.506758   1.106131
     8  O    2.456447   2.738702   2.738073   3.406704   1.424949
     9  H    2.340283   2.394511   2.394033   3.422058   1.934961
                    6          7          8          9
     6  H    0.000000
     7  H    1.779149   0.000000
     8  O    2.065966   2.066232   0.000000
     9  H    2.683205   2.683372   0.964711   0.000000
 Stoichiometry    C2H6O
 Framework group  C1[X(C2H6O)]
 Deg. of freedom    21
 Full point group                 C1
 Largest Abelian subgroup         C1      NOp   1
 Largest concise Abelian subgroup C1      NOp   1
                         Standard orientation:                         
 ---------------------------------------------------------------------
 Center     Atomic     Atomic              Coordinates (Angstroms)
 Number     Number      Type              X           Y           Z
 ---------------------------------------------------------------------
    1          6             0       -1.199948   -0.234106   -0.000065
    2          1             0       -1.254303   -0.877451   -0.895461
    3          1             0       -1.253649   -0.876984    0.895755
    4          1             0       -2.082680    0.425945    0.000258
    5          6             0        0.091968    0.572050   -0.000052
    6          1             0        0.119696    1.228801   -0.889639
    7          1             0        0.119210    1.228908    0.889510
    8          8             0        1.256453   -0.249203    0.000028
    9          1             0        0.947978   -1.163266    0.000055
 ---------------------------------------------------------------------
 Rotational constants (GHZ):     33.8617255      9.3454229      8.0758832

 **********************************************************************

            Population analysis using the SCF density.

 **********************************************************************

 Orbital symmetries:
       Occupied  (A) (A) (A) (A) (A) (A) (A) (A) (A) (A) (A) (A)
                 (A)
       Virtual   (A) (A) (A) (A) (A) (A) (A) (A) (A) (A) (A) (A)
                 (A) (A) (A) (A) (A) (A) (A) (A) (A) (A) (A) (A)
                 (A) (A) (A) (A) (A) (A) (A) (A) (A) (A) (A) (A)
                 (A) (A) (A) (A) (A) (A) (A) (A) (A) (A) (A) (A)
                 (A) (A) (A) (A) (A) (A) (A) (A) (A) (A) (A)
 The electronic state is 1-A.
 Alpha  occ. eigenvalues --  -20.54836 -11.27921 -11.23630  -1.35045  -1.01135
 Alpha  occ. eigenvalues --   -0.84648  -0.65067  -0.64030  -0.61603  -0.53057
 Alpha  occ. eigenvalues --   -0.52509  -0.48273  -0.43259
 Alpha virt. eigenvalues --    0.17986   0.21887   0.23988   0.24064   0.25732
 Alpha virt. eigenvalues --    0.28364   0.37035   0.40792   0.59352   0.61501
 Alpha virt. eigenvalues --    0.66816   0.73907   0.74620   0.81308   0.83509
 Alpha virt. eigenvalues --    0.86216   0.87973   0.88898   0.89985   0.92460
 Alpha virt. eigenvalues --    1.11273   1.14046   1.15834   1.29056   1.33107
 Alpha virt. eigenvalues --    1.39082   1.46101   1.49080   1.53903   1.60794
 Alpha virt. eigenvalues --    1.66681   1.82701   1.83751   1.85262   1.88779
 Alpha virt. eigenvalues --    1.92232   1.92756   1.93675   1.96462   2.00248
 Alpha virt. eigenvalues --    2.07623   2.17138   2.22106   2.28150   2.31018
 Alpha virt. eigenvalues --    2.48001   2.49666   2.50319   2.55120   2.72365
 Alpha virt. eigenvalues --    2.75548   2.77588   2.87957   2.88072   3.32884
 Alpha virt. eigenvalues --    3.40171   3.45271   3.64030   4.10575
          Condensed to atoms (all electrons):
              1          2          3          4          5          6
     1  C    4.600233   0.401564   0.401524   0.396115   0.443698  -0.031475
     2  H    0.401564   0.643289  -0.033955  -0.020407  -0.030646  -0.011281
     3  H    0.401524  -0.033955   0.643409  -0.020404  -0.030681   0.008567
     4  H    0.396115  -0.020407  -0.020404   0.621748  -0.019136  -0.002384
     5  C    0.443698  -0.030646  -0.030681  -0.019136   4.374163   0.404569
     6  H   -0.031475  -0.011281   0.008567  -0.002384   0.404569   0.681097
     7  H   -0.031459   0.008561  -0.011301  -0.002389   0.404534  -0.048388
     8  O   -0.043391   0.001263   0.001265   0.003299   0.328504  -0.030848
     9  H   -0.010959   0.002838   0.002844   0.000188  -0.054120   0.004891
              7          8          9
     1  C   -0.031459  -0.043391  -0.010959
     2  H    0.008561   0.001263   0.002838
     3  H   -0.011301   0.001265   0.002844
     4  H   -0.002389   0.003299   0.000188
     5  C    0.404534   0.328504  -0.054120
     6  H   -0.048388  -0.030848   0.004891
     7  H    0.681136  -0.030828   0.004887
     8  O   -0.030828   7.788657   0.368306
     9  H    0.004887   0.368306   0.519537
 Mulliken atomic charges:
              1
     1  C   -0.125850
     2  H    0.038774
     3  H    0.038732
     4  H    0.043370
     5  C    0.179115
     6  H    0.025252
     7  H    0.025246
     8  O   -0.386227
     9  H    0.161588
 Sum of Mulliken charges=   0.00000
 Atomic charges with hydrogens summed into heavy atoms:
              1
     1  C   -0.004974
     2  H    0.000000
     3  H    0.000000
     4  H    0.000000
     5  C    0.229613
     6  H    0.000000
     7  H    0.000000
     8  O   -0.224638
     9  H    0.000000
 Sum of Mulliken charges=   0.00000
 Electronic spatial extent (au):  <R**2>=   194.4684
 Charge=     0.0000 electrons
 Dipole moment (field-independent basis, Debye):
    X=    -1.8918    Y=    -0.5851    Z=     0.0000  Tot=     1.9803
 Quadrupole moment (field-independent basis, Debye-Ang):
   XX=   -23.4859   YY=   -17.3441   ZZ=   -19.9681
   XY=    -0.9211   XZ=    -0.0001   YZ=     0.0005
 Traceless Quadrupole moment (field-independent basis, Debye-Ang):
   XX=    -3.2199   YY=     2.9219   ZZ=     0.2979
   XY=    -0.9211   XZ=    -0.0001   YZ=     0.0005
 Octapole moment (field-independent basis, Debye-Ang**2):
  XXX=    -0.5690  YYY=    -4.3836  ZZZ=     0.0002  XYY=     4.1262
  XXY=    -0.0167  XXZ=    -0.0006  XZZ=     1.3719  YZZ=    -0.4333
  YYZ=    -0.0005  XYZ=    -0.0016
 Hexadecapole moment (field-independent basis, Debye-Ang**3):
 XXXX=  -162.0515 YYYY=   -54.8146 ZZZZ=   -32.5667 XXXY=    -4.9942
 XXXZ=     0.0003 YYYX=    -5.7671 YYYZ=     0.0016 ZZZX=    -0.0001
 ZZZY=     0.0002 XXYY=   -32.9835 XXZZ=   -32.3767 YYZZ=   -13.8672
 XXYZ=     0.0022 YYXZ=     0.0009 ZZXY=     0.1063
 N-N= 8.155059372415D+01 E-N=-5.248400589536D+02  KE= 1.538617931512D+02

 Test job not archived.
 1\1\GINC-ELF33\FOpt\RMP2-FC\CC-pVDZ\C2H6O1\CJWU\26-Feb-2009\0\\# MP2/c
 c-pvdz opt=modredundant maxdisk=30GB test\\Generated with COMPARE prog
 ram by Chuanjie Wu\\0,1\C,-1.7557201555,1.1219628718,1.2285185262\H,-1
 .6797229863,0.6332628567,2.2154221546\H,-0.8637003847,1.7558333728,1.0
 829926953\H,-2.6418815732,1.7773127259,1.239327392\C,-1.8538726012,0.0
 792488434,0.1230557326\H,-2.7647621993,-0.5311745032,0.268378078\H,-1.
 954428639,0.5847341629,-0.8556669993\O,-0.7235867237,-0.78730208,0.078
 0665831\H,-0.1320077371,-0.5041552502,0.7855478376\\Version=EM64M-G03R
 evE.01\State=1-A\HF=-154.088663\MP2=-154.5709807\RMSD=9.838e-09\RMSF=5
 .644e-05\Thermal=0.\Dipole=-0.0776869,0.5234909,0.4633995\PG=C01 [X(C2
 H6O1)]\\@


 SCIENCE AT ITS BEST PROVIDES US WITH BETTER QUESTIONS, 
 NOT ABSOLUTE ANSWERS

                                    -- NORMAN COUSINS, 1976
 Job cpu time:  0 days  0 hours  0 minutes 56.2 seconds.
 File lengths (MBytes):  RWF=     13 Int=      0 D2E=      0 Chk=      6 Scr=      1
 Normal termination of Gaussian 03 at Thu Feb 26 18:41:09 2009.
